Generated element topology from TPR+XTC
 2268
    1SYS      O    1   2.938   2.108   2.024
    1SYS      C    2   2.938   2.021   1.937
    1SYS      O    3   0.063   2.002   1.832
    1SYS      O    4   2.863   1.913   1.945
    1SYS      C    5   0.054   1.870   1.779
    1SYS      C    6   2.882   1.829   1.833
    1SYS      H    7   0.132   1.804   1.818
    1SYS      C    8   0.056   1.901   1.628
    1SYS      H    9   2.879   1.724   1.863
    1SYS      H   10   2.798   1.852   1.768
    1SYS      H   11   0.148   1.950   1.597
    1SYS      H   12   2.937   1.969   1.602
    1SYS      H   13   0.062   1.826   1.549
    1SYS      O   14   0.361   2.850   2.689
    1SYS      C   15   0.319   2.740   2.656
    1SYS      O   16   0.392   2.636   2.638
    1SYS      O   17   0.189   2.720   2.631
    1SYS      C   18   0.310   2.529   2.601
    1SYS      C   19   0.163   2.584   2.630
    1SYS      H   20   0.323   2.452   2.677
    1SYS      C   21   0.338   2.495   2.453
    1SYS      H   22   0.124   2.547   2.725
    1SYS      H   23   0.091   2.556   2.554
    1SYS      H   24   0.444   2.470   2.441
    1SYS      H   25   0.306   2.575   2.387
    1SYS      H   26   0.278   2.407   2.433
    1SYS      O   27   1.726   2.320   1.480
    1SYS      C   28   1.824   2.374   1.537
    1SYS      O   29   1.817   2.460   1.632
    1SYS      O   30   1.949   2.344   1.517
    1SYS      C   31   1.939   2.504   1.684
    1SYS      C   32   2.037   2.430   1.594
    1SYS      H   33   1.943   2.474   1.789
    1SYS      C   34   1.925   2.663   1.672
    1SYS      H   35   2.112   2.373   1.649
    1SYS      H   36   2.098   2.490   1.526
    1SYS      H   37   1.874   2.715   1.753
    1SYS      H   38   1.872   2.686   1.580
    1SYS      H   39   2.023   2.710   1.670
    1SYS      O   40   1.272   2.493   0.646
    1SYS      C   41   1.376   2.530   0.583
    1SYS      O   42   1.479   2.461   0.563
    1SYS      O   43   1.385   2.651   0.522
    1SYS      C   44   1.574   2.523   0.474
    1SYS      C   45   1.500   2.654   0.441
    1SYS      H   46   1.587   2.460   0.386
    1SYS      C   47   1.719   2.540   0.539
    1SYS      H   48   1.473   2.667   0.336
    1SYS      H   49   1.573   2.733   0.458
    1SYS      H   50   1.745   2.587   0.634
    1SYS      H   51   1.789   2.580   0.465
    1SYS      H   52   1.747   2.435   0.547
    1SYS      O   53   2.365   2.476   1.566
    1SYS      C   54   2.381   2.355   1.547
    1SYS      O   55   2.286   2.271   1.520
    1SYS      O   56   2.495   2.293   1.561
    1SYS      C   57   2.341   2.147   1.484
    1SYS      C   58   2.485   2.155   1.542
    1SYS      H   59   2.343   2.150   1.375
    1SYS      C   60   2.262   2.023   1.535
    1SYS      H   61   2.561   2.126   1.469
    1SYS      H   62   2.489   2.102   1.637
    1SYS      H   63   2.264   2.003   1.642
    1SYS      H   64   2.299   1.931   1.489
    1SYS      H   65   2.161   2.044   1.500
    1SYS      O   66   2.303   1.587   1.107
    1SYS      C   67   2.332   1.481   1.056
    1SYS      O   68   2.455   1.437   1.051
    1SYS      O   69   2.253   1.401   0.997
    1SYS      C   70   2.468   1.330   0.960
    1SYS      C   71   2.326   1.290   0.941
    1SYS      H   72   2.527   1.257   1.015
    1SYS      C   73   2.548   1.388   0.836
    1SYS      H   74   2.308   1.204   1.006
    1SYS      H   75   2.302   1.255   0.841
    1SYS      H   76   2.618   1.464   0.871
    1SYS      H   77   2.478   1.422   0.760
    1SYS      H   78   2.606   1.310   0.787
    1SYS      O   79   2.224   0.646   1.140
    1SYS      C   80   2.130   0.657   1.055
    1SYS      O   81   2.004   0.691   1.086
    1SYS      O   82   2.142   0.633   0.926
    1SYS      C   83   1.919   0.692   0.973
    1SYS      C   84   2.031   0.689   0.855
    1SYS      H   85   1.870   0.789   0.969
    1SYS      C   86   1.820   0.571   0.984
    1SYS      H   87   2.053   0.785   0.808
    1SYS      H   88   1.996   0.626   0.774
    1SYS      H   89   1.857   0.469   0.984
    1SYS      H   90   1.754   0.578   0.897
    1SYS      H   91   1.766   0.578   1.078
    1SYS      O   92   2.820   2.860   1.022
    1SYS      C   93   2.857   2.820   1.133
    1SYS      O   94   0.002   2.748   1.163
    1SYS      O   95   2.794   2.850   1.245
    1SYS      C   96   0.027   2.748   1.302
    1SYS      C   97   2.855   2.784   1.354
    1SYS      H   98   0.093   2.827   1.336
    1SYS      C   99   0.075   2.605   1.351
    1SYS      H  100   2.867   2.851   1.440
    1SYS      H  101   2.794   2.699   1.385
    1SYS      H  102   0.170   2.574   1.307
    1SYS      H  103   0.003   2.525   1.332
    1SYS      H  104   0.087   2.616   1.459
    1SYS      O  105   2.921   0.958   1.512
    1SYS      C  106   0.076   0.997   1.536
    1SYS      O  107   0.121   1.098   1.479
    1SYS      O  108   0.167   0.948   1.624
    1SYS      C  109   0.246   1.135   1.526
    1SYS      C  110   0.271   1.037   1.649
    1SYS      H  111   0.257   1.239   1.555
    1SYS      C  112   0.345   1.100   1.411
    1SYS      H  113   0.264   1.079   1.749
    1SYS      H  114   0.372   0.996   1.647
    1SYS      H  115   0.448   1.099   1.448
    1SYS      H  116   0.328   1.179   1.338
    1SYS      H  117   0.324   0.997   1.380
    1SYS      O  118   0.903   2.771   1.954
    1SYS      C  119   0.930   2.778   1.830
    1SYS      O  120   0.950   2.674   1.745
    1SYS      O  121   0.962   2.889   1.761
    1SYS      C  122   1.015   2.711   1.625
    1SYS      C  123   1.004   2.864   1.626
    1SYS      H  124   0.969   2.669   1.536
    1SYS      C  125   1.158   2.662   1.637
    1SYS      H  126   1.099   2.917   1.615
    1SYS      H  127   0.931   2.894   1.551
    1SYS      H  128   1.173   2.586   1.561
    1SYS      H  129   1.170   2.625   1.739
    1SYS      H  130   1.231   2.741   1.619
    1SYS      O  131   1.855   0.928   0.736
    1SYS      C  132   1.739   0.946   0.779
    1SYS      O  133   1.693   0.946   0.911
    1SYS      O  134   1.643   0.970   0.699
    1SYS      C  135   1.554   0.945   0.911
    1SYS      C  136   1.516   0.949   0.764
    1SYS      H  137   1.520   1.042   0.948
    1SYS      C  138   1.490   0.830   0.977
    1SYS      H  139   1.441   1.026   0.745
    1SYS      H  140   1.481   0.849   0.740
    1SYS      H  141   1.382   0.825   0.966
    1SYS      H  142   1.525   0.815   1.079
    1SYS      H  143   1.528   0.738   0.933
    1SYS      O  144   2.197   2.379   0.194
    1SYS      C  145   2.145   2.279   0.149
    1SYS      O  146   2.062   2.198   0.210
    1SYS      O  147   2.166   2.235   0.029
    1SYS      C  148   2.005   2.094   0.123
    1SYS      C  149   2.080   2.128   2.950
    1SYS      H  150   1.900   2.123   0.116
    1SYS      C  151   2.023   1.957   0.181
    1SYS      H  152   2.010   2.147   2.868
    1SYS      H  153   2.131   2.040   2.911
    1SYS      H  154   1.968   1.888   0.117
    1SYS      H  155   1.967   1.959   0.275
    1SYS      H  156   2.129   1.939   0.198
    1SYS      O  157   0.538   0.219   2.684
    1SYS      C  158   0.647   0.208   2.734
    1SYS      O  159   0.717   0.094   2.730
    1SYS      O  160   0.719   0.309   2.778
    1SYS      C  161   0.847   0.110   2.783
    1SYS      C  162   0.846   0.261   2.821
    1SYS      H  163   0.917   0.089   2.703
    1SYS      C  164   0.856   0.011   2.895
    1SYS      H  165   0.917   0.326   2.770
    1SYS      H  166   0.840   0.277   2.929
    1SYS      H  167   0.833   2.870   2.866
    1SYS      H  168   0.792   0.036   0.017
    1SYS      H  169   0.957   2.959   2.935
    1SYS      O  170   0.296   0.336   2.862
    1SYS      C  171   0.312   0.440   2.793
    1SYS      O  172   0.384   0.451   2.677
    1SYS      O  173   0.257   0.553   2.822
    1SYS      C  174   0.390   0.582   2.636
    1SYS      C  175   0.283   0.654   2.721
    1SYS      H  176   0.353   0.580   2.533
    1SYS      C  177   0.531   0.635   2.646
    1SYS      H  178   0.189   0.672   2.670
    1SYS      H  179   0.319   0.748   2.762
    1SYS      H  180   0.582   0.616   2.740
    1SYS      H  181   0.548   0.740   2.621
    1SYS      H  182   0.594   0.588   2.570
    1SYS      O  183   0.558   2.639   0.898
    1SYS      C  184   0.440   2.654   0.914
    1SYS      O  185   0.364   2.587   0.993
    1SYS      O  186   0.367   2.734   0.849
    1SYS      C  187   0.227   2.612   0.967
    1SYS      C  188   0.231   2.741   0.888
    1SYS      H  189   0.177   2.621   1.064
    1SYS      C  190   0.154   2.498   0.906
    1SYS      H  191   0.218   2.826   0.954
    1SYS      H  192   0.161   2.748   0.804
    1SYS      H  193   0.175   2.398   0.943
    1SYS      H  194   0.183   2.497   0.801
    1SYS      H  195   0.045   2.491   0.912
    1SYS      O  196   0.605   1.840   2.943
    1SYS      C  197   0.719   1.812   2.919
    1SYS      O  198   0.775   1.803   2.798
    1SYS      O  199   0.810   1.773   0.043
    1SYS      C  200   0.913   1.802   2.797
    1SYS      C  201   0.929   1.745   2.939
    1SYS      H  202   0.954   1.903   2.787
    1SYS      C  203   0.955   1.724   2.674
    1SYS      H  204   1.015   1.803   0.012
    1SYS      H  205   0.958   1.640   2.934
    1SYS      H  206   0.917   1.622   2.676
    1SYS      H  207   1.064   1.724   2.665
    1SYS      H  208   0.930   1.775   2.581
    1SYS      O  209   1.525   0.464   1.973
    1SYS      C  210   1.569   0.550   1.899
    1SYS      O  211   1.616   0.669   1.938
    1SYS      O  212   1.590   0.534   1.775
    1SYS      C  213   1.659   0.751   1.830
    1SYS      C  214   1.672   0.635   1.721
    1SYS      H  215   1.755   0.789   1.864
    1SYS      C  216   1.554   0.854   1.795
    1SYS      H  217   1.772   0.592   1.727
    1SYS      H  218   1.658   0.658   1.615
    1SYS      H  219   1.552   0.935   1.869
    1SYS      H  220   1.455   0.810   1.808
    1SYS      H  221   1.556   0.907   1.700
    1SYS      O  222   0.176   1.478   1.947
    1SYS      C  223   0.123   1.486   1.839
    1SYS      O  224   0.003   1.441   1.809
    1SYS      O  225   0.180   1.538   1.737
    1SYS      C  226   2.924   1.464   1.678
    1SYS      C  227   0.099   1.523   1.625
    1SYS      H  228   2.848   1.542   1.683
    1SYS      C  229   2.884   1.346   1.596
    1SYS      H  230   0.079   1.618   1.575
    1SYS      H  231   0.151   1.470   1.545
    1SYS      H  232   2.795   1.293   1.631
    1SYS      H  233   0.003   1.273   1.593
    1SYS      H  234   2.877   1.390   1.496
    1SYS      O  235   1.895   0.318   0.750
    1SYS      C  236   2.007   0.306   0.706
    1SYS      O  237   2.112   0.364   0.762
    1SYS      O  238   2.042   0.227   0.610
    1SYS      C  239   2.226   0.344   0.678
    1SYS      C  240   2.184   0.216   0.606
    1SYS      H  241   2.310   0.318   0.743
    1SYS      C  242   2.243   0.473   0.595
    1SYS      H  243   2.207   0.123   0.659
    1SYS      H  244   2.225   0.214   0.505
    1SYS      H  245   2.165   0.478   0.519
    1SYS      H  246   2.340   0.480   0.545
    1SYS      H  247   2.236   0.560   0.660
    1SYS      O  248   1.854   1.914   2.826
    1SYS      C  249   1.784   1.821   2.856
    1SYS      O  250   1.823   1.692   2.829
    1SYS      O  251   1.666   1.817   2.929
    1SYS      C  252   1.733   1.605   2.894
    1SYS      C  253   1.625   1.690   0.005
    1SYS      H  254   1.789   1.556   0.011
    1SYS      C  255   1.676   1.502   2.800
    1SYS      H  256   1.634   1.659   0.109
    1SYS      H  257   1.523   1.659   2.943
    1SYS      H  258   1.617   1.544   2.718
    1SYS      H  259   1.607   1.436   2.854
    1SYS      H  260   1.756   1.451   2.747
    1SYS      O  261   2.253   1.596   1.733
    1SYS      C  262   2.306   1.686   1.799
    1SYS      O  263   2.439   1.702   1.808
    1SYS      O  264   2.241   1.777   1.879
    1SYS      C  265   2.468   1.814   1.884
    1SYS      C  266   2.330   1.865   1.940
    1SYS      H  267   2.499   1.898   1.821
    1SYS      C  268   2.566   1.782   2.000
    1SYS      H  269   2.307   1.962   1.895
    1SYS      H  270   2.319   1.853   2.048
    1SYS      H  271   2.576   1.860   2.075
    1SYS      H  272   2.672   1.777   1.974
    1SYS      H  273   2.534   1.685   2.038
    1SYS      O  274   2.418   2.210   0.965
    1SYS      C  275   2.394   2.093   0.974
    1SYS      O  276   2.419   2.003   0.882
    1SYS      O  277   2.354   2.040   1.080
    1SYS      C  278   2.397   1.870   0.926
    1SYS      C  279   2.340   1.905   1.067
    1SYS      H  280   2.491   1.817   0.940
    1SYS      C  281   2.295   1.780   0.844
    1SYS      H  282   2.388   1.844   1.144
    1SYS      H  283   2.238   1.867   1.070
    1SYS      H  284   2.340   1.751   0.749
    1SYS      H  285   2.204   1.838   0.834
    1SYS      H  286   2.280   1.690   0.903
    1SYS      O  287   0.441   2.814   1.225
    1SYS      C  288   0.445   2.792   1.344
    1SYS      O  289   0.470   2.881   1.435
    1SYS      O  290   0.428   2.678   1.406
    1SYS      C  291   0.487   2.823   1.563
    1SYS      C  292   0.416   2.691   1.543
    1SYS      H  293   0.426   2.885   1.630
    1SYS      C  294   0.635   2.813   1.591
    1SYS      H  295   0.309   2.700   1.559
    1SYS      H  296   0.456   2.611   1.606
    1SYS      H  297   0.671   2.753   1.508
    1SYS      H  298   0.656   2.753   1.680
    1SYS      H  299   0.687   2.909   1.587
    1SYS      O  300   1.601   1.258   1.636
    1SYS      C  301   1.486   1.253   1.682
    1SYS      O  302   1.374   1.238   1.608
    1SYS      O  303   1.457   1.254   1.807
    1SYS      C  304   1.260   1.230   1.687
    1SYS      C  305   1.321   1.216   1.826
    1SYS      H  306   1.214   1.133   1.666
    1SYS      C  307   1.163   1.348   1.670
    1SYS      H  308   1.301   1.115   1.862
    1SYS      H  309   1.273   1.286   1.894
    1SYS      H  310   1.115   1.359   1.573
    1SYS      H  311   1.202   1.449   1.683
    1SYS      H  312   1.085   1.345   1.746
    1SYS      O  313   2.041   0.930   2.106
    1SYS      C  314   1.972   1.006   2.040
    1SYS      O  315   2.012   1.127   2.002
    1SYS      O  316   1.847   0.985   2.008
    1SYS      C  317   1.912   1.187   1.923
    1SYS      C  318   1.791   1.090   1.936
    1SYS      H  319   1.939   1.176   1.818
    1SYS      C  320   1.868   1.332   1.956
    1SYS      H  321   1.759   1.054   1.838
    1SYS      H  322   1.705   1.132   1.988
    1SYS      H  323   1.804   1.374   1.878
    1SYS      H  324   1.955   1.394   1.978
    1SYS      H  325   1.805   1.334   2.045
    1SYS      O  326   2.770   2.083   0.065
    1SYS      C  327   2.831   2.064   2.922
    1SYS      O  328   2.889   1.944   2.902
    1SYS      O  329   2.855   2.146   2.823
    1SYS      C  330   2.961   1.943   2.781
    1SYS      C  331   2.954   2.092   2.741
    1SYS      H  332   2.894   1.885   2.717
    1SYS      C  333   0.150   1.892   2.800
    1SYS      H  334   2.917   2.107   2.639
    1SYS      H  335   0.079   2.154   2.761
    1SYS      H  336   0.218   1.959   2.854
    1SYS      H  337   0.187   1.897   2.698
    1SYS      H  338   0.163   1.791   2.840
    1SYS      O  339   0.786   2.733   1.287
    1SYS      C  340   0.899   2.684   1.280
    1SYS      O  341   0.931   2.552   1.269
    1SYS      O  342   0.998   2.761   1.263
    1SYS      C  343   1.071   2.543   1.233
    1SYS      C  344   1.119   2.694   1.251
    1SYS      H  345   1.056   2.520   1.128
    1SYS      C  346   1.137   2.429   1.311
    1SYS      H  347   1.169   2.746   1.170
    1SYS      H  348   1.179   2.693   1.342
    1SYS      H  349   1.245   2.434   1.298
    1SYS      H  350   1.101   2.338   1.263
    1SYS      H  351   1.114   2.420   1.417
    1SYS      O  352   0.751   0.744   2.247
    1SYS      C  353   0.772   0.847   2.312
    1SYS      O  354   0.892   0.908   2.322
    1SYS      O  355   0.683   0.904   2.394
    1SYS      C  356   0.897   1.013   2.415
    1SYS      C  357   0.744   1.022   2.450
    1SYS      H  358   0.934   1.111   2.385
    1SYS      C  359   0.978   0.960   2.533
    1SYS      H  360   0.716   1.117   2.405
    1SYS      H  361   0.733   1.035   2.558
    1SYS      H  362   0.972   1.019   2.625
    1SYS      H  363   1.086   0.957   2.516
    1SYS      H  364   0.960   0.853   2.547
    1SYS      O  365   2.483   1.572   0.505
    1SYS      C  366   2.537   1.465   0.473
    1SYS      O  367   2.472   1.375   0.400
    1SYS      O  368   2.657   1.424   0.500
    1SYS      C  369   2.550   1.263   0.377
    1SYS      C  370   2.688   1.309   0.430
    1SYS      H  371   2.555   1.257   0.268
    1SYS      C  372   2.477   1.145   0.436
    1SYS      H  373   2.761   1.321   0.350
    1SYS      H  374   2.723   1.224   0.488
    1SYS      H  375   2.516   1.053   0.392
    1SYS      H  376   2.375   1.134   0.399
    1SYS      H  377   2.482   1.147   0.545
    1SYS      O  378   1.861   0.725   2.667
    1SYS      C  379   1.795   0.824   2.642
    1SYS      O  380   1.847   0.941   2.635
    1SYS      O  381   1.671   0.824   2.636
    1SYS      C  382   1.744   1.045   2.619
    1SYS      C  383   1.616   0.956   2.620
    1SYS      H  384   1.754   1.108   2.530
    1SYS      C  385   1.756   1.128   2.745
    1SYS      H  386   1.560   0.961   2.527
    1SYS      H  387   1.539   0.965   2.696
    1SYS      H  388   1.680   1.205   2.758
    1SYS      H  389   1.853   1.178   2.742
    1SYS      H  390   1.768   1.058   2.827
    1SYS      O  391   2.580   0.305   1.649
    1SYS      C  392   2.456   0.302   1.628
    1SYS      O  393   2.406   0.331   1.507
    1SYS      O  394   2.363   0.263   1.711
    1SYS      C  395   2.264   0.306   1.506
    1SYS      C  396   2.236   0.269   1.649
    1SYS      H  397   2.236   0.219   1.447
    1SYS      C  398   2.182   0.428   1.464
    1SYS      H  399   2.170   0.183   1.645
    1SYS      H  400   2.168   0.340   1.695
    1SYS      H  401   2.180   0.505   1.541
    1SYS      H  402   2.078   0.401   1.446
    1SYS      H  403   2.222   0.474   1.373
    1SYS      O  404   2.114   1.708   1.382
    1SYS      C  405   2.083   1.590   1.378
    1SYS      O  406   2.142   1.490   1.434
    1SYS      O  407   1.978   1.559   1.313
    1SYS      C  408   2.062   1.373   1.410
    1SYS      C  409   1.949   1.426   1.332
    1SYS      H  410   2.018   1.347   1.506
    1SYS      C  411   2.132   1.247   1.356
    1SYS      H  412   1.850   1.425   1.379
    1SYS      H  413   1.938   1.386   1.231
    1SYS      H  414   2.195   1.244   1.267
    1SYS      H  415   2.070   1.160   1.334
    1SYS      H  416   2.202   1.209   1.430
    1SYS      O  417   0.748   2.471   2.234
    1SYS      C  418   0.695   2.366   2.204
    1SYS      O  419   0.568   2.351   2.195
    1SYS      O  420   0.756   2.253   2.181
    1SYS      C  421   0.529   2.231   2.137
    1SYS      C  422   0.654   2.153   2.161
    1SYS      H  423   0.513   2.238   2.029
    1SYS      C  424   0.399   2.184   2.205
    1SYS      H  425   0.673   2.087   2.077
    1SYS      H  426   0.658   2.085   2.246
    1SYS      H  427   0.316   2.255   2.202
    1SYS      H  428   0.411   2.163   2.311
    1SYS      H  429   0.367   2.095   2.150
    1SYS      O  430   2.054   2.746   2.858
    1SYS      C  431   1.946   2.775   2.819
    1SYS      O  432   1.927   2.786   2.688
    1SYS      O  433   1.840   2.806   2.889
    1SYS      C  434   1.800   2.840   2.659
    1SYS      C  435   1.736   2.834   2.798
    1SYS      H  436   1.758   2.775   2.582
    1SYS      C  437   1.807   0.026   2.626
    1SYS      H  438   1.665   2.752   2.802
    1SYS      H  439   1.683   2.925   2.826
    1SYS      H  440   1.715   0.083   2.612
    1SYS      H  441   1.871   0.045   2.540
    1SYS      H  442   1.847   0.074   2.716
    1SYS      O  443   0.491   1.103   2.588
    1SYS      C  444   0.507   1.073   2.708
    1SYS      O  445   0.425   1.112   2.805
    1SYS      O  446   0.598   0.987   2.752
    1SYS      C  447   0.464   1.049   2.925
    1SYS      C  448   0.597   0.975   2.888
    1SYS      H  449   0.387   0.972   2.936
    1SYS      C  450   0.473   1.136   0.084
    1SYS      H  451   0.590   0.873   2.927
    1SYS      H  452   0.682   1.024   2.936
    1SYS      H  453   0.527   1.085   0.163
    1SYS      H  454   0.371   1.150   0.120
    1SYS      H  455   0.528   1.229   0.069
    1SYS      O  456   2.455   2.452   0.333
    1SYS      C  457   2.437   2.376   0.426
    1SYS      O  458   2.326   2.342   0.475
    1SYS      O  459   2.534   2.330   0.501
    1SYS      C  460   2.338   2.241   0.581
    1SYS      C  461   2.487   2.239   0.600
    1SYS      H  462   2.294   2.152   0.536
    1SYS      C  463   2.246   2.288   0.694
    1SYS      H  464   2.522   2.137   0.583
    1SYS      H  465   2.519   2.270   0.699
    1SYS      H  466   2.293   2.377   0.737
    1SYS      H  467   2.226   2.212   0.769
    1SYS      H  468   2.147   2.316   0.658
    1SYS      O  469   1.776   2.581   1.078
    1SYS      C  470   1.724   2.635   1.173
    1SYS      O  471   1.646   2.746   1.165
    1SYS      O  472   1.737   2.597   1.298
    1SYS      C  473   1.600   2.791   1.290
    1SYS      C  474   1.648   2.675   1.380
    1SYS      H  475   1.651   2.882   1.322
    1SYS      C  476   1.447   2.810   1.278
    1SYS      H  477   1.564   2.611   1.407
    1SYS      H  478   1.700   2.712   1.469
    1SYS      H  479   1.414   2.900   1.226
    1SYS      H  480   1.394   2.826   1.372
    1SYS      H  481   1.402   2.738   1.210
    1SYS      O  482   0.453   2.190   0.940
    1SYS      C  483   0.369   2.104   0.909
    1SYS      O  484   0.397   2.006   0.821
    1SYS      O  485   0.244   2.095   0.948
    1SYS      C  486   0.290   1.921   0.802
    1SYS      C  487   0.178   1.995   0.878
    1SYS      H  488   0.309   1.823   0.846
    1SYS      C  489   0.244   1.902   0.654
    1SYS      H  490   0.116   1.939   0.948
    1SYS      H  491   0.118   2.056   0.810
    1SYS      H  492   0.208   1.991   0.603
    1SYS      H  493   0.154   1.841   0.664
    1SYS      H  494   0.317   1.846   0.596
    1SYS      O  495   2.885   2.485   2.892
    1SYS      C  496   2.825   2.559   0.006
    1SYS      O  497   2.877   2.604   0.123
    1SYS      O  498   2.704   2.605   2.953
    1SYS      C  499   2.788   2.701   0.183
    1SYS      C  500   2.659   2.673   0.114
    1SYS      H  501   2.824   2.802   0.163
    1SYS      C  502   2.779   2.677   0.336
    1SYS      H  503   2.601   2.765   0.110
    1SYS      H  504   2.600   2.595   0.163
    1SYS      H  505   2.876   2.691   0.383
    1SYS      H  506   2.733   2.580   0.354
    1SYS      H  507   2.716   2.751   0.384
    1SYS      O  508   2.690   0.006   1.582
    1SYS      C  509   2.580   2.915   1.567
    1SYS      O  510   2.524   2.899   1.451
    1SYS      O  511   2.491   2.877   1.667
    1SYS      C  512   2.412   2.815   1.463
    1SYS      C  513   2.366   2.838   1.608
    1SYS      H  514   2.444   2.713   1.445
    1SYS      C  515   2.317   2.832   1.344
    1SYS      H  516   2.322   2.748   1.652
    1SYS      H  517   2.300   2.925   1.614
    1SYS      H  518   2.294   2.938   1.331
    1SYS      H  519   2.223   2.785   1.374
    1SYS      H  520   2.353   2.797   1.247
    1SYS      O  521   1.608   1.638   0.794
    1SYS      C  522   1.535   1.658   0.696
    1SYS      O  523   1.584   1.666   0.574
    1SYS      O  524   1.406   1.681   0.697
    1SYS      C  525   1.479   1.675   0.478
    1SYS      C  526   1.352   1.704   0.561
    1SYS      H  527   1.471   1.577   0.430
    1SYS      C  528   1.497   1.788   0.363
    1SYS      H  529   1.274   1.637   0.526
    1SYS      H  530   1.311   1.805   0.557
    1SYS      H  531   1.443   1.767   0.271
    1SYS      H  532   1.600   1.821   0.348
    1SYS      H  533   1.440   1.876   0.395
    1SYS      O  534   1.259   2.741   0.934
    1SYS      C  535   1.329   2.809   0.859
    1SYS      O  536   1.463   2.809   0.862
    1SYS      O  537   1.285   2.876   0.763
    1SYS      C  538   1.515   2.891   0.764
    1SYS      C  539   1.390   2.935   0.686
    1SYS      H  540   1.575   2.832   0.695
    1SYS      C  541   1.598   0.050   0.817
    1SYS      H  542   1.368   2.904   0.584
    1SYS      H  543   1.366   0.078   0.701
    1SYS      H  544   1.652   0.028   0.909
    1SYS      H  545   1.523   0.125   0.844
    1SYS      H  546   1.671   0.087   0.745
    1SYS      O  547   1.646   1.975   1.615
    1SYS      C  548   1.739   1.903   1.660
    1SYS      O  549   1.776   1.787   1.603
    1SYS      O  550   1.811   1.938   1.763
    1SYS      C  551   1.884   1.737   1.679
    1SYS      C  552   1.902   1.837   1.804
    1SYS      H  553   1.977   1.737   1.622
    1SYS      C  554   1.850   1.591   1.720
    1SYS      H  555   2.009   1.859   1.806
    1SYS      H  556   1.868   1.783   1.892
    1SYS      H  557   1.912   1.551   1.800
    1SYS      H  558   1.862   1.528   1.632
    1SYS      H  559   1.746   1.597   1.753
    1SYS      O  560   2.163   0.596   1.753
    1SYS      C  561   2.101   0.549   1.849
    1SYS      O  562   2.000   0.615   1.909
    1SYS      O  563   2.120   0.435   1.904
    1SYS      C  564   1.947   0.537   2.008
    1SYS      C  565   2.033   0.410   2.010
    1SYS      H  566   1.842   0.511   1.995
    1SYS      C  567   1.970   0.622   2.124
    1SYS      H  568   1.970   0.323   1.990
    1SYS      H  569   2.090   0.407   2.103
    1SYS      H  570   2.074   0.656   2.119
    1SYS      H  571   1.974   0.565   2.217
    1SYS      H  572   1.898   0.702   2.138
    1SYS      O  573   1.982   0.914   1.719
    1SYS      C  574   1.924   0.940   1.613
    1SYS      O  575   1.871   0.854   1.523
    1SYS      O  576   1.903   1.067   1.581
    1SYS      C  577   1.804   0.925   1.421
    1SYS      C  578   1.819   1.070   1.466
    1SYS      H  579   1.700   0.897   1.407
    1SYS      C  580   1.879   0.893   1.290
    1SYS      H  581   1.719   1.110   1.481
    1SYS      H  582   1.863   1.136   1.391
    1SYS      H  583   1.841   0.958   1.211
    1SYS      H  584   1.862   0.791   1.256
    1SYS      H  585   1.986   0.909   1.306
    1SYS      O  586   0.758   1.323   2.852
    1SYS      C  587   0.711   1.384   2.757
    1SYS      O  588   0.614   1.471   2.758
    1SYS      O  589   0.756   1.374   2.628
    1SYS      C  590   0.587   1.524   2.631
    1SYS      C  591   0.688   1.454   2.538
    1SYS      H  592   0.609   1.631   2.635
    1SYS      C  593   0.452   1.483   2.593
    1SYS      H  594   0.761   1.516   2.485
    1SYS      H  595   0.640   1.393   2.461
    1SYS      H  596   0.373   1.514   2.662
    1SYS      H  597   0.442   1.375   2.602
    1SYS      H  598   0.429   1.515   2.491
    1SYS      O  599   2.228   2.939   2.617
    1SYS      C  600   2.204   2.834   2.550
    1SYS      O  601   2.161   2.830   2.425
    1SYS      O  602   2.204   2.714   2.600
    1SYS      C  603   2.167   2.698   2.370
    1SYS      C  604   2.159   2.623   2.505
    1SYS      H  605   2.266   2.685   2.327
    1SYS      C  606   2.064   2.661   2.266
    1SYS      H  607   2.229   2.539   2.506
    1SYS      H  608   2.057   2.592   2.526
    1SYS      H  609   2.090   2.726   2.182
    1SYS      H  610   1.963   2.679   2.302
    1SYS      H  611   2.066   2.556   2.239
    1SYS      O  612   2.206   1.889   0.507
    1SYS      C  613   2.293   1.892   0.417
    1SYS      O  614   2.395   1.973   0.404
    1SYS      O  615   2.297   1.810   0.318
    1SYS      C  616   2.474   1.944   0.289
    1SYS      C  617   2.400   1.830   0.233
    1SYS      H  618   2.576   1.919   0.317
    1SYS      C  619   2.463   2.071   0.198
    1SYS      H  620   2.459   1.738   0.226
    1SYS      H  621   2.363   1.849   0.132
    1SYS      H  622   2.512   2.160   0.239
    1SYS      H  623   2.360   2.098   0.173
    1SYS      H  624   2.510   2.049   0.102
    1SYS      O  625   2.455   0.408   1.040
    1SYS      C  626   2.515   0.350   1.127
    1SYS      O  627   2.635   0.378   1.164
    1SYS      O  628   2.480   0.234   1.185
    1SYS      C  629   2.687   0.283   1.255
    1SYS      C  630   2.588   0.172   1.250
    1SYS      H  631   2.679   0.328   1.354
    1SYS      C  632   2.834   0.252   1.226
    1SYS      H  633   2.568   0.150   1.355
    1SYS      H  634   2.617   0.086   1.190
    1SYS      H  635   2.871   0.174   1.292
    1SYS      H  636   2.897   0.340   1.241
    1SYS      H  637   2.862   0.213   1.128
    1SYS      O  638   2.554   0.867   2.955
    1SYS      C  639   2.465   0.951   2.938
    1SYS      O  640   2.338   0.945   0.024
    1SYS      O  641   2.479   1.058   2.861
    1SYS      C  642   2.252   1.041   2.927
    1SYS      C  643   2.352   1.127   2.848
    1SYS      H  644   2.199   1.102   0.037
    1SYS      C  645   2.136   0.980   2.840
    1SYS      H  646   2.367   1.231   2.877
    1SYS      H  647   2.328   1.124   2.742
    1SYS      H  648   2.079   1.055   2.785
    1SYS      H  649   2.063   0.941   2.911
    1SYS      H  650   2.164   0.904   2.767
    1SYS      O  651   2.075   2.007   2.583
    1SYS      C  652   2.067   2.058   2.475
    1SYS      O  653   1.984   2.019   2.382
    1SYS      O  654   2.130   2.168   2.444
    1SYS      C  655   2.009   2.104   2.270
    1SYS      C  656   2.112   2.209   2.314
    1SYS      H  657   1.920   2.156   2.234
    1SYS      C  658   2.058   2.018   2.153
    1SYS      H  659   2.074   2.311   2.312
    1SYS      H  660   2.206   2.205   2.259
    1SYS      H  661   1.974   1.978   2.095
    1SYS      H  662   2.118   1.933   2.185
    1SYS      H  663   2.096   2.085   2.076
    1SYS      O  664   1.396   2.880   1.726
    1SYS      C  665   1.355   0.011   1.798
    1SYS      O  666   1.408   0.040   1.910
    1SYS      O  667   1.259   0.097   1.777
    1SYS      C  668   1.356   0.155   1.972
    1SYS      C  669   1.257   0.211   1.861
    1SYS      H  670   1.437   0.222   1.999
    1SYS      C  671   1.293   0.103   2.100
    1SYS      H  672   1.292   0.306   1.820
    1SYS      H  673   1.157   0.230   1.899
    1SYS      H  674   1.359   0.037   2.157
    1SYS      H  675   1.204   0.042   2.084
    1SYS      H  676   1.262   0.184   2.166
    1SYS      O  677   0.714   1.253   0.302
    1SYS      C  678   0.792   1.346   0.321
    1SYS      O  679   0.856   1.409   0.227
    1SYS      O  680   0.828   1.395   0.442
    1SYS      C  681   0.945   1.513   0.279
    1SYS      C  682   0.936   1.488   0.432
    1SYS      H  683   0.904   1.606   0.239
    1SYS      C  684   1.077   1.473   0.219
    1SYS      H  685   0.916   1.587   0.473
    1SYS      H  686   1.032   1.446   0.463
    1SYS      H  687   1.165   1.503   0.275
    1SYS      H  688   1.089   1.512   0.118
    1SYS      H  689   1.080   1.364   0.216
    1SYS      O  690   0.473   0.303   1.598
    1SYS      C  691   0.420   0.260   1.493
    1SYS      O  692   0.476   0.266   1.371
    1SYS      O  693   0.303   0.209   1.491
    1SYS      C  694   0.391   0.216   1.272
    1SYS      C  695   0.265   0.186   1.356
    1SYS      H  696   0.436   0.123   1.236
    1SYS      C  697   0.363   0.302   1.155
    1SYS      H  698   0.227   0.084   1.354
    1SYS      H  699   0.178   0.246   1.327
    1SYS      H  700   0.308   0.235   1.089
    1SYS      H  701   0.450   0.331   1.096
    1SYS      H  702   0.304   0.389   1.182
    1SYS      O  703   0.762   0.678   0.726
    1SYS      C  704   0.656   0.622   0.736
    1SYS      O  705   0.618   0.502   0.678
    1SYS      O  706   0.540   0.675   0.788
    1SYS      C  707   0.487   0.461   0.705
    1SYS      C  708   0.431   0.606   0.728
    1SYS      H  709   0.481   0.399   0.795
    1SYS      C  710   0.435   0.389   0.580
    1SYS      H  711   0.345   0.603   0.795
    1SYS      H  712   0.391   0.665   0.645
    1SYS      H  713   0.509   0.320   0.538
    1SYS      H  714   0.416   0.466   0.506
    1SYS      H  715   0.342   0.336   0.603
    1SYS      O  716   0.419   1.762   0.338
    1SYS      C  717   0.447   1.686   0.244
    1SYS      O  718   0.379   1.679   0.136
    1SYS      O  719   0.553   1.603   0.244
    1SYS      C  720   0.434   1.585   0.049
    1SYS      C  721   0.561   1.534   0.123
    1SYS      H  722   0.457   1.626   2.913
    1SYS      C  723   0.328   1.470   0.036
    1SYS      H  724   0.656   1.541   0.070
    1SYS      H  725   0.554   1.428   0.146
    1SYS      H  726   0.231   1.514   0.012
    1SYS      H  727   0.305   1.417   0.128
    1SYS      H  728   0.349   1.387   2.930
    1SYS      O  729   2.012   2.659   0.250
    1SYS      C  730   1.915   2.598   0.206
    1SYS      O  731   1.920   2.480   0.150
    1SYS      O  732   1.788   2.650   0.201
    1SYS      C  733   1.786   2.443   0.111
    1SYS      C  734   1.700   2.569   0.125
    1SYS      H  735   1.753   2.364   0.179
    1SYS      C  736   1.779   2.386   2.928
    1SYS      H  737   1.601   2.568   0.171
    1SYS      H  738   1.686   2.605   0.023
    1SYS      H  739   1.678   2.378   2.889
    1SYS      H  740   1.835   2.295   2.908
    1SYS      H  741   1.812   2.456   2.851
    1SYS      O  742   1.053   0.267   0.100
    1SYS      C  743   1.072   0.307   0.218
    1SYS      O  744   1.015   0.247   0.324
    1SYS      O  745   1.153   0.402   0.263
    1SYS      C  746   1.044   0.314   0.442
    1SYS      C  747   1.169   0.398   0.403
    1SYS      H  748   1.071   0.246   0.523
    1SYS      C  749   0.928   0.407   0.484
    1SYS      H  750   1.266   0.350   0.416
    1SYS      H  751   1.175   0.496   0.451
    1SYS      H  752   0.838   0.370   0.533
    1SYS      H  753   0.885   0.444   0.391
    1SYS      H  754   0.951   0.492   0.549
    1SYS      O  755   2.398   1.075   1.283
    1SYS      C  756   2.394   0.975   1.352
    1SYS      O  757   2.498   0.886   1.373
    1SYS      O  758   2.292   0.934   1.425
    1SYS      C  759   2.459   0.776   1.451
    1SYS      C  760   2.311   0.809   1.487
    1SYS      H  761   2.514   0.765   1.544
    1SYS      C  762   2.477   0.647   1.373
    1SYS      H  763   2.278   0.816   1.591
    1SYS      H  764   2.240   0.739   1.443
    1SYS      H  765   2.384   0.616   1.326
    1SYS      H  766   2.509   0.575   1.449
    1SYS      H  767   2.563   0.667   1.308
    1SYS      O  768   2.023   1.171   0.982
    1SYS      C  769   1.932   1.251   0.958
    1SYS      O  770   1.813   1.213   0.915
    1SYS      O  771   1.935   1.385   0.956
    1SYS      C  772   1.733   1.317   0.879
    1SYS      C  773   1.813   1.441   0.919
    1SYS      H  774   1.639   1.315   0.934
    1SYS      C  775   1.713   1.306   0.725
    1SYS      H  776   1.764   1.497   0.999
    1SYS      H  777   1.832   1.505   0.833
    1SYS      H  778   1.650   1.386   0.687
    1SYS      H  779   1.659   1.212   0.712
    1SYS      H  780   1.807   1.301   0.669
    1SYS      O  781   1.724   2.177   1.129
    1SYS      C  782   1.795   2.082   1.155
    1SYS      O  783   1.875   2.016   1.078
    1SYS      O  784   1.790   2.024   1.271
    1SYS      C  785   1.935   1.904   1.144
    1SYS      C  786   1.870   1.905   1.282
    1SYS      H  787   2.040   1.934   1.145
    1SYS      C  788   1.922   1.787   1.062
    1SYS      H  789   1.946   1.905   1.360
    1SYS      H  790   1.804   1.819   1.296
    1SYS      H  791   1.950   1.806   0.958
    1SYS      H  792   1.820   1.750   1.066
    1SYS      H  793   1.974   1.701   1.106
    1SYS      O  794   0.061   1.399   0.694
    1SYS      C  795   0.173   1.432   0.659
    1SYS      O  796   0.265   1.348   0.613
    1SYS      O  797   0.211   1.555   0.656
    1SYS      C  798   0.383   1.426   0.579
    1SYS      C  799   0.352   1.558   0.651
    1SYS      H  800   0.388   1.436   0.471
    1SYS      C  801   0.509   1.354   0.624
    1SYS      H  802   0.384   1.643   0.591
    1SYS      H  803   0.383   1.579   0.753
    1SYS      H  804   0.500   1.327   0.729
    1SYS      H  805   0.597   1.411   0.596
    1SYS      H  806   0.507   1.254   0.580
    1SYS      O  807   2.738   0.889   0.446
    1SYS      C  808   2.848   0.905   0.499
    1SYS      O  809   2.934   0.999   0.463
    1SYS      O  810   2.897   0.835   0.601
    1SYS      C  811   0.083   1.006   0.548
    1SYS      C  812   0.061   0.885   0.644
    1SYS      H  813   0.086   1.105   0.594
    1SYS      C  814   0.193   0.984   0.454
    1SYS      H  815   0.046   0.927   0.744
    1SYS      H  816   0.140   0.810   0.638
    1SYS      H  817   0.202   1.066   0.383
    1SYS      H  818   0.180   0.887   0.406
    1SYS      H  819   0.290   0.975   0.504
    1SYS      O  820   0.987   0.981   0.132
    1SYS      C  821   1.100   0.995   0.182
    1SYS      O  822   1.198   0.906   0.175
    1SYS      O  823   1.136   1.099   0.248
    1SYS      C  824   1.314   0.963   0.216
    1SYS      C  825   1.259   1.075   0.307
    1SYS      H  826   1.367   1.006   0.131
    1SYS      C  827   1.407   0.874   0.295
    1SYS      H  828   1.322   1.164   0.299
    1SYS      H  829   1.241   1.050   0.411
    1SYS      H  830   1.493   0.838   0.238
    1SYS      H  831   1.353   0.796   0.350
    1SYS      H  832   1.458   0.927   0.375
    1SYS      O  833   0.218   0.753   1.165
    1SYS      C  834   0.158   0.683   1.081
    1SYS      O  835   0.116   0.561   1.102
    1SYS      O  836   0.121   0.728   0.963
    1SYS      C  837   0.041   0.512   1.001
    1SYS      C  838   0.028   0.640   0.907
    1SYS      H  839   2.906   0.477   1.036
    1SYS      C  840   0.118   0.401   0.925
    1SYS      H  841   2.892   0.687   0.902
    1SYS      H  842   0.071   0.623   0.808
    1SYS      H  843   0.055   0.363   0.844
    1SYS      H  844   0.130   0.309   0.982
    1SYS      H  845   0.210   0.435   0.878
    1SYS      O  846   2.408   0.433   2.540
    1SYS      C  847   2.292   0.394   2.535
    1SYS      O  848   2.186   0.463   2.596
    1SYS      O  849   2.243   0.299   2.461
    1SYS      C  850   2.060   0.412   2.555
    1SYS      C  851   2.104   0.287   2.469
    1SYS      H  852   2.012   0.491   2.498
    1SYS      C  853   1.999   0.362   2.686
    1SYS      H  854   2.067   0.268   2.368
    1SYS      H  855   2.074   0.200   2.527
    1SYS      H  856   1.925   0.282   2.684
    1SYS      H  857   1.955   0.436   2.752
    1SYS      H  858   2.079   0.323   2.749
    1SYS      O  859   2.880   0.305   1.533
    1SYS      C  860   2.920   0.418   1.519
    1SYS      O  861   0.063   0.445   1.443
    1SYS      O  862   2.871   0.530   1.563
    1SYS      C  863   0.101   0.584   1.450
    1SYS      C  864   2.956   0.639   1.541
    1SYS      H  865   0.084   0.629   1.352
    1SYS      C  866   0.244   0.608   1.505
    1SYS      H  867   2.884   0.710   1.501
    1SYS      H  868   0.032   0.666   1.639
    1SYS      H  869   0.324   0.570   1.441
    1SYS      H  870   0.259   0.551   1.597
    1SYS      H  871   0.277   0.711   1.521
    1SYS      O  872   0.625   2.495   1.797
    1SYS      C  873   0.715   2.418   1.771
    1SYS      O  874   0.755   2.315   1.849
    1SYS      O  875   0.788   2.430   1.664
    1SYS      C  876   0.875   2.266   1.801
    1SYS      C  877   0.888   2.338   1.660
    1SYS      H  878   0.866   2.158   1.790
    1SYS      C  879   0.981   2.322   1.901
    1SYS      H  880   0.855   2.269   1.582
    1SYS      H  881   0.982   2.379   1.624
    1SYS      H  882   0.980   2.431   1.908
    1SYS      H  883   1.080   2.279   1.887
    1SYS      H  884   0.950   2.289   2.000
    1SYS      O  885   1.096   2.216   2.675
    1SYS      C  886   1.030   2.218   2.774
    1SYS      O  887   0.979   2.327   2.822
    1SYS      O  888   1.008   2.118   2.860
    1SYS      C  889   0.908   2.308   2.944
    1SYS      C  890   0.950   2.166   0.014
    1SYS      H  891   0.802   2.316   2.920
    1SYS      C  892   0.961   2.418   0.074
    1SYS      H  893   0.859   2.111   0.040
    1SYS      H  894   1.019   2.164   0.099
    1SYS      H  895   0.910   2.421   0.170
    1SYS      H  896   0.945   2.519   0.035
    1SYS      H  897   1.062   2.389   0.101
    1SYS      O  898   2.560   0.363   0.421
    1SYS      C  899   2.583   0.277   0.506
    1SYS      O  900   2.561   0.290   0.637
    1SYS      O  901   2.635   0.152   0.485
    1SYS      C  902   2.602   0.178   0.715
    1SYS      C  903   2.648   0.074   0.604
    1SYS      H  904   2.505   0.154   0.759
    1SYS      C  905   2.696   0.222   0.820
    1SYS      H  906   2.584   2.948   0.611
    1SYS      H  907   2.752   0.043   0.615
    1SYS      H  908   2.654   0.294   0.890
    1SYS      H  909   2.783   0.261   0.768
    1SYS      H  910   2.737   0.150   0.891
    1SYS      O  911   0.249   2.160   2.574
    1SYS      C  912   0.360   2.104   2.590
    1SYS      O  913   0.457   2.147   2.677
    1SYS      O  914   0.405   1.998   2.526
    1SYS      C  915   0.581   2.077   2.661
    1SYS      C  916   0.538   1.963   2.568
    1SYS      H  917   0.611   2.038   2.758
    1SYS      C  918   0.682   2.182   2.609
    1SYS      H  919   0.545   1.871   2.626
    1SYS      H  920   0.599   1.954   2.478
    1SYS      H  921   0.697   2.261   2.683
    1SYS      H  922   0.660   2.228   2.513
    1SYS      H  923   0.783   2.141   2.601
    1SYS      O  924   2.420   2.350   2.382
    1SYS      C  925   2.531   2.324   2.326
    1SYS      O  926   2.647   2.364   2.379
    1SYS      O  927   2.547   2.252   2.224
    1SYS      C  928   2.757   2.293   2.310
    1SYS      C  929   2.680   2.231   2.187
    1SYS      H  930   2.802   2.208   2.360
    1SYS      C  931   2.870   2.388   2.269
    1SYS      H  932   2.705   2.125   2.182
    1SYS      H  933   2.707   2.290   2.099
    1SYS      H  934   2.958   2.331   2.239
    1SYS      H  935   2.903   2.447   2.354
    1SYS      H  936   2.843   2.462   2.194
    1SYS      O  937   1.727   2.422   2.600
    1SYS      C  938   1.697   2.304   2.582
    1SYS      O  939   1.741   2.229   2.486
    1SYS      O  940   1.606   2.238   2.662
    1SYS      C  941   1.679   2.107   2.485
    1SYS      C  942   1.573   2.112   2.598
    1SYS      H  943   1.754   2.030   2.504
    1SYS      C  944   1.611   2.089   2.347
    1SYS      H  945   1.577   2.019   2.655
    1SYS      H  946   1.468   2.114   2.568
    1SYS      H  947   1.570   1.989   2.331
    1SYS      H  948   1.685   2.101   2.267
    1SYS      H  949   1.531   2.163   2.340
    1SYS      O  950   0.560   2.776   0.528
    1SYS      C  951   0.539   2.657   0.521
    1SYS      O  952   0.440   2.593   0.580
    1SYS      O  953   0.612   2.569   0.454
    1SYS      C  954   0.453   2.446   0.563
    1SYS      C  955   0.591   2.443   0.490
    1SYS      H  956   0.377   2.404   0.497
    1SYS      C  957   0.454   2.366   0.702
    1SYS      H  958   0.603   2.382   0.401
    1SYS      H  959   0.665   2.408   0.562
    1SYS      H  960   0.360   2.381   0.756
    1SYS      H  961   0.533   2.394   0.772
    1SYS      H  962   0.455   2.259   0.683
    1SYS      O  963   0.424   1.668   1.622
    1SYS      C  964   0.423   1.765   1.692
    1SYS      O  965   0.435   1.892   1.645
    1SYS      O  966   0.404   1.765   1.821
    1SYS      C  967   0.421   1.992   1.750
    1SYS      C  968   0.402   1.894   1.878
    1SYS      H  969   0.339   2.061   1.733
    1SYS      C  970   0.547   2.081   1.751
    1SYS      H  971   0.310   1.923   1.929
    1SYS      H  972   0.481   1.916   1.950
    1SYS      H  973   0.546   2.165   1.820
    1SYS      H  974   0.563   2.119   1.650
    1SYS      H  975   0.638   2.024   1.768
    1SYS      O  976   2.667   1.613   2.376
    1SYS      C  977   2.735   1.556   2.293
    1SYS      O  978   2.714   1.566   2.166
    1SYS      O  979   2.831   1.475   2.323
    1SYS      C  980   2.801   1.486   2.091
    1SYS      C  981   2.880   1.415   2.199
    1SYS      H  982   2.865   1.557   2.037
    1SYS      C  983   2.730   1.391   2.002
    1SYS      H  984   0.026   1.420   2.188
    1SYS      H  985   2.851   1.310   2.206
    1SYS      H  986   2.656   1.433   1.933
    1SYS      H  987   2.682   1.315   2.063
    1SYS      H  988   2.796   1.335   1.935
    1SYS      O  989   1.980   2.277   2.005
    1SYS      C  990   1.863   2.252   1.979
    1SYS      O  991   1.790   2.339   1.906
    1SYS      O  992   1.793   2.141   2.018
    1SYS      C  993   1.660   2.285   1.885
    1SYS      C  994   1.664   2.154   1.969
    1SYS      H  995   1.656   2.268   1.777
    1SYS      C  996   1.569   2.398   1.932
    1SYS      H  997   1.632   2.062   1.919
    1SYS      H  998   1.600   2.164   2.056
    1SYS      H  999   1.530   2.452   1.846
    1SYS      H 1000   1.604   2.465   2.010
    1SYS      H 1001   1.478   2.356   1.976
    1SYS      O 1002   1.082   0.855   0.554
    1SYS      C 1003   0.967   0.837   0.502
    1SYS      O 1004   0.864   0.924   0.506
    1SYS      O 1005   0.935   0.731   0.428
    1SYS      C 1006   0.763   0.884   0.418
    1SYS      C 1007   0.807   0.741   0.382
    1SYS      H 1008   0.769   0.950   0.332
    1SYS      C 1009   0.623   0.890   0.470
    1SYS      H 1010   0.795   0.709   0.279
    1SYS      H 1011   0.745   0.680   0.447
    1SYS      H 1012   0.553   0.865   0.390
    1SYS      H 1013   0.600   0.990   0.507
    1SYS      H 1014   0.594   0.818   0.546
    1SYS      O 1015   1.467   2.942   2.409
    1SYS      C 1016   1.394   0.058   2.463
    1SYS      O 1017   1.417   0.111   2.582
    1SYS      O 1018   1.284   0.103   2.409
    1SYS      C 1019   1.309   0.204   2.615
    1SYS      C 1020   1.234   0.212   2.478
    1SYS      H 1021   1.346   0.299   2.653
    1SYS      C 1022   1.228   0.137   2.724
    1SYS      H 1023   1.251   0.305   2.423
    1SYS      H 1024   1.126   0.200   2.484
    1SYS      H 1025   1.292   0.086   2.796
    1SYS      H 1026   1.163   0.060   2.682
    1SYS      H 1027   1.167   0.204   2.785
    1SYS      O 1028   1.799   0.683   0.236
    1SYS      C 1029   1.744   0.648   0.336
    1SYS      O 1030   1.805   0.589   0.432
    1SYS      O 1031   1.614   0.654   0.364
    1SYS      C 1032   1.714   0.550   0.535
    1SYS      C 1033   1.589   0.634   0.502
    1SYS      H 1034   1.752   0.577   0.633
    1SYS      C 1035   1.702   0.405   0.510
    1SYS      H 1036   1.578   0.732   0.549
    1SYS      H 1037   1.496   0.584   0.529
    1SYS      H 1038   1.650   0.354   0.591
    1SYS      H 1039   1.804   0.369   0.497
    1SYS      H 1040   1.655   0.371   0.418
    1SYS      O 1041   1.695   1.304   1.251
    1SYS      C 1042   1.588   1.252   1.244
    1SYS      O 1043   1.515   1.219   1.349
    1SYS      O 1044   1.521   1.214   1.128
    1SYS      C 1045   1.385   1.182   1.312
    1SYS      C 1046   1.389   1.168   1.156
    1SYS      H 1047   1.330   1.267   1.351
    1SYS      C 1048   1.341   1.048   1.381
    1SYS      H 1049   1.314   1.232   1.110
    1SYS      H 1050   1.383   1.067   1.116
    1SYS      H 1051   1.246   1.020   1.336
    1SYS      H 1052   1.315   1.050   1.487
    1SYS      H 1053   1.408   0.967   1.353
    1SYS      O 1054   1.480   2.037   0.628
    1SYS      C 1055   1.367   2.091   0.607
    1SYS      O 1056   1.263   2.094   0.689
    1SYS      O 1057   1.328   2.135   0.491
    1SYS      C 1058   1.147   2.147   0.633
    1SYS      C 1059   1.195   2.182   0.497
    1SYS      H 1060   1.109   2.235   0.684
    1SYS      C 1061   1.045   2.028   0.637
    1SYS      H 1062   1.185   2.290   0.484
    1SYS      H 1063   1.132   2.138   0.420
    1SYS      H 1064   1.028   1.996   0.740
    1SYS      H 1065   1.076   1.935   0.590
    1SYS      H 1066   0.949   2.048   0.589
    1SYS      O 1067   2.923   0.835   2.717
    1SYS      C 1068   2.934   0.908   2.817
    1SYS      O 1069   2.831   0.957   2.879
    1SYS      O 1070   0.082   0.955   2.864
    1SYS      C 1071   2.867   1.044   0.022
    1SYS      C 1072   0.060   1.033   0.016
    1SYS      H 1073   2.829   1.005   0.117
    1SYS      C 1074   2.813   1.188   2.960
    1SYS      H 1075   0.104   0.981   0.101
    1SYS      H 1076   0.104   1.133   0.008
    1SYS      H 1077   2.832   1.218   2.857
    1SYS      H 1078   2.869   1.258   0.060
    1SYS      H 1079   2.705   1.181   0.013
    1SYS      O 1080   0.578   0.982   1.842
    1SYS      C 1081   0.541   0.874   1.882
    1SYS      O 1082   0.615   0.793   1.961
    1SYS      O 1083   0.429   0.821   1.843
    1SYS      C 1084   0.546   0.673   1.964
    1SYS      C 1085   0.413   0.690   1.885
    1SYS      H 1086   0.526   0.650   2.069
    1SYS      C 1087   0.647   0.568   1.911
    1SYS      H 1088   0.315   0.675   1.930
    1SYS      H 1089   0.421   0.637   1.790
    1SYS      H 1090   0.742   0.575   1.964
    1SYS      H 1091   0.677   0.580   1.807
    1SYS      H 1092   0.618   0.463   1.919
    1SYS      O 1093   1.484   1.269   0.072
    1SYS      C 1094   1.587   1.222   0.125
    1SYS      O 1095   1.579   1.135   0.227
    1SYS      O 1096   1.711   1.240   0.089
    1SYS      C 1097   1.707   1.095   0.273
    1SYS      C 1098   1.797   1.187   0.183
    1SYS      H 1099   1.724   0.989   0.255
    1SYS      C 1100   1.727   1.123   0.422
    1SYS      H 1101   1.888   1.139   0.148
    1SYS      H 1102   1.829   1.276   0.238
    1SYS      H 1103   1.826   1.093   0.456
    1SYS      H 1104   1.643   1.075   0.472
    1SYS      H 1105   1.724   1.230   0.440
    1SYS      O 1106   1.950   1.302   2.334
    1SYS      C 1107   1.886   1.408   2.347
    1SYS      O 1108   1.826   1.465   2.248
    1SYS      O 1109   1.886   1.469   2.462
    1SYS      C 1110   1.788   1.596   2.292
    1SYS      C 1111   1.827   1.594   2.447
    1SYS      H 1112   1.683   1.625   2.292
    1SYS      C 1113   1.867   1.700   2.207
    1SYS      H 1114   1.747   1.622   2.515
    1SYS      H 1115   1.897   1.675   2.467
    1SYS      H 1116   1.829   1.802   2.211
    1SYS      H 1117   1.857   1.679   2.101
    1SYS      H 1118   1.975   1.704   2.220
    1SYS      O 1119   2.456   0.578   0.298
    1SYS      C 1120   2.394   0.569   0.193
    1SYS      O 1121   2.310   0.659   0.144
    1SYS      O 1122   2.408   0.470   0.110
    1SYS      C 1123   2.256   0.617   0.026
    1SYS      C 1124   2.303   0.468   0.012
    1SYS      H 1125   2.302   0.687   2.918
    1SYS      C 1126   2.105   0.640   0.030
    1SYS      H 1127   2.340   0.444   2.874
    1SYS      H 1128   2.237   0.386   0.040
    1SYS      H 1129   2.043   0.555   0.060
    1SYS      H 1130   2.058   0.651   2.894
    1SYS      H 1131   2.069   0.725   0.088
    1SYS      O 1132   0.821   1.674   0.680
    1SYS      C 1133   0.759   1.693   0.780
    1SYS      O 1134   0.685   1.795   0.814
    1SYS      O 1135   0.766   1.603   0.877
    1SYS      C 1136   0.647   1.785   0.947
    1SYS      C 1137   0.688   1.638   0.985
    1SYS      H 1138   0.539   1.799   0.943
    1SYS      C 1139   0.708   1.892   1.024
    1SYS      H 1140   0.597   1.578   0.979
    1SYS      H 1141   0.732   1.622   1.084
    1SYS      H 1142   0.704   1.980   0.960
    1SYS      H 1143   0.810   1.868   1.054
    1SYS      H 1144   0.665   1.926   1.118
    1SYS      O 1145   1.621   0.207   2.864
    1SYS      C 1146   1.565   0.307   2.904
    1SYS      O 1147   1.505   0.400   2.835
    1SYS      O 1148   1.550   0.337   0.073
    1SYS      C 1149   1.456   0.498   2.921
    1SYS      C 1150   1.507   0.466   0.100
    1SYS      H 1151   1.348   0.501   2.907
    1SYS      C 1152   1.512   0.627   2.851
    1SYS      H 1153   1.427   0.458   0.174
    1SYS      H 1154   1.591   0.527   0.133
    1SYS      H 1155   1.621   0.625   2.842
    1SYS      H 1156   1.499   0.708   2.923
    1SYS      H 1157   1.471   0.639   2.751
    1SYS      O 1158   0.943   2.751   0.139
    1SYS      C 1159   0.941   2.726   0.259
    1SYS      O 1160   0.917   2.815   0.359
    1SYS      O 1161   0.957   2.607   0.312
    1SYS      C 1162   0.918   2.760   0.489
    1SYS      C 1163   0.960   2.614   0.455
    1SYS      H 1164   0.821   2.759   0.540
    1SYS      C 1165   1.029   2.824   0.565
    1SYS      H 1166   0.886   2.543   0.492
    1SYS      H 1167   1.060   2.574   0.471
    1SYS      H 1168   1.121   2.833   0.508
    1SYS      H 1169   1.050   2.782   0.663
    1SYS      H 1170   1.017   2.932   0.577
    1SYS      O 1171   2.391   0.447   2.219
    1SYS      C 1172   2.417   0.531   2.137
    1SYS      O 1173   2.443   0.500   2.018
    1SYS      O 1174   2.420   0.668   2.166
    1SYS      C 1175   2.465   0.614   1.941
    1SYS      C 1176   2.445   0.734   2.038
    1SYS      H 1177   2.391   0.615   1.861
    1SYS      C 1178   2.606   0.599   1.887
    1SYS      H 1179   2.346   0.779   2.027
    1SYS      H 1180   2.520   0.813   2.036
    1SYS      H 1181   2.611   0.511   1.823
    1SYS      H 1182   2.685   0.598   1.962
    1SYS      H 1183   2.628   0.685   1.823
    1SYS      O 1184   1.412   1.982   1.307
    1SYS      C 1185   1.408   1.965   1.186
    1SYS      O 1186   1.297   1.977   1.116
    1SYS      O 1187   1.511   1.937   1.110
    1SYS      C 1188   1.314   1.947   0.977
    1SYS      C 1189   1.471   1.921   0.977
    1SYS      H 1190   1.275   2.038   0.931
    1SYS      C 1191   1.225   1.836   0.933
    1SYS      H 1192   1.526   1.987   0.910
    1SYS      H 1193   1.481   1.819   0.940
    1SYS      H 1194   1.191   1.851   0.831
    1SYS      H 1195   1.140   1.837   1.001
    1SYS      H 1196   1.269   1.736   0.938
    1SYS      O 1197   1.021   2.884   2.475
    1SYS      C 1198   0.979   2.797   2.545
    1SYS      O 1199   0.895   2.708   2.507
    1SYS      O 1200   1.016   2.779   2.670
    1SYS      C 1201   0.869   2.610   2.610
    1SYS      C 1202   0.962   2.659   2.721
    1SYS      H 1203   0.906   2.514   2.574
    1SYS      C 1204   0.720   2.604   2.634
    1SYS      H 1205   1.040   2.593   2.759
    1SYS      H 1206   0.905   2.675   2.812
    1SYS      H 1207   0.666   2.543   2.561
    1SYS      H 1208   0.680   2.705   2.639
    1SYS      H 1209   0.707   2.553   2.729
    1SYS      O 1210   2.530   1.075   2.137
    1SYS      C 1211   2.474   1.179   2.170
    1SYS      O 1212   2.378   1.239   2.112
    1SYS      O 1213   2.497   1.236   2.285
    1SYS      C 1214   2.332   1.356   2.181
    1SYS      C 1215   2.416   1.349   2.308
    1SYS      H 1216   2.226   1.348   2.204
    1SYS      C 1217   2.364   1.479   2.097
    1SYS      H 1218   2.357   1.340   2.399
    1SYS      H 1219   2.478   1.438   2.318
    1SYS      H 1220   2.472   1.494   2.094
    1SYS      H 1221   2.319   1.569   2.140
    1SYS      H 1222   2.336   1.461   1.993
    1SYS      O 1223   2.692   2.456   1.356
    1SYS      C 1224   2.719   2.456   1.476
    1SYS      O 1225   2.807   2.374   1.532
    1SYS      O 1226   2.676   2.542   1.565
    1SYS      C 1227   2.851   2.421   1.659
    1SYS      C 1228   2.734   2.518   1.687
    1SYS      H 1229   2.933   2.491   1.644
    1SYS      C 1230   2.874   2.322   1.771
    1SYS      H 1231   2.763   2.611   1.736
    1SYS      H 1232   2.651   2.475   1.744
    1SYS      H 1233   2.797   2.247   1.787
    1SYS      H 1234   2.877   2.373   1.867
    1SYS      H 1235   0.007   2.272   1.752
    1SYS      O 1236   0.895   2.301   0.459
    1SYS      C 1237   0.840   2.198   0.421
    1SYS      O 1238   0.730   2.153   0.476
    1SYS      O 1239   0.873   2.133   0.317
    1SYS      C 1240   0.691   2.036   0.412
    1SYS      C 1241   0.802   2.009   0.312
    1SYS      H 1242   0.599   2.063   0.360
    1SYS      C 1243   0.664   1.932   0.518
    1SYS      H 1244   0.764   1.994   0.211
    1SYS      H 1245   0.875   1.933   0.341
    1SYS      H 1246   0.592   1.979   0.584
    1SYS      H 1247   0.752   1.894   0.570
    1SYS      H 1248   0.617   1.844   0.474
    1SYS      O 1249   2.298   2.962   0.977
    1SYS      C 1250   2.194   0.053   1.009
    1SYS      O 1251   2.178   0.171   1.054
    1SYS      O 1252   2.075   0.001   0.989
    1SYS      C 1253   2.042   0.213   1.059
    1SYS      C 1254   1.974   0.074   1.053
    1SYS      H 1255   2.018   0.270   0.969
    1SYS      C 1256   2.023   0.287   1.189
    1SYS      H 1257   1.886   0.089   0.991
    1SYS      H 1258   1.952   0.036   1.153
    1SYS      H 1259   2.079   0.380   1.177
    1SYS      H 1260   2.052   0.222   1.272
    1SYS      H 1261   1.918   0.307   1.208
    1SYS      O 1262   1.252   2.042   2.035
    1SYS      C 1263   1.202   2.044   2.147
    1SYS      O 1264   1.159   1.935   2.217
    1SYS      O 1265   1.176   2.151   2.221
    1SYS      C 1266   1.091   1.975   2.338
    1SYS      C 1267   1.151   2.113   2.358
    1SYS      H 1268   1.114   1.916   2.426
    1SYS      C 1269   0.940   1.962   2.290
    1SYS      H 1270   1.246   2.129   2.409
    1SYS      H 1271   1.081   2.186   2.397
    1SYS      H 1272   0.911   1.859   2.308
    1SYS      H 1273   0.928   1.968   2.182
    1SYS      H 1274   0.863   2.026   2.333
    1SYS      O 1275   0.613   2.296   0.151
    1SYS      C 1276   0.559   2.404   0.116
    1SYS      O 1277   0.436   2.448   0.157
    1SYS      O 1278   0.617   2.500   0.045
    1SYS      C 1279   0.417   2.579   0.115
    1SYS      C 1280   0.522   2.598   0.007
    1SYS      H 1281   0.449   2.654   0.187
    1SYS      C 1282   0.269   2.620   0.081
    1SYS      H 1283   0.559   2.700   0.012
    1SYS      H 1284   0.486   2.585   2.867
    1SYS      H 1285   0.200   2.605   0.164
    1SYS      H 1286   0.239   2.556   2.960
    1SYS      H 1287   0.259   2.725   0.052
    1SYS      O 1288   2.589   0.972   1.695
    1SYS      C 1289   2.480   1.011   1.723
    1SYS      O 1290   2.425   1.124   1.682
    1SYS      O 1291   2.408   0.953   1.816
    1SYS      C 1292   2.297   1.139   1.738
    1SYS      C 1293   2.302   1.036   1.850
    1SYS      H 1294   2.219   1.109   1.668
    1SYS      C 1295   2.265   1.283   1.780
    1SYS      H 1296   2.210   0.978   1.845
    1SYS      H 1297   2.320   1.071   1.952
    1SYS      H 1298   2.258   1.344   1.690
    1SYS      H 1299   2.350   1.318   1.838
    1SYS      H 1300   2.173   1.303   1.835
    1SYS      O 1301   0.569   0.931   1.266
    1SYS      C 1302   0.655   0.953   1.355
    1SYS      O 1303   0.756   1.037   1.339
    1SYS      O 1304   0.652   0.900   1.481
    1SYS      C 1305   0.828   1.047   1.461
    1SYS      C 1306   0.755   0.953   1.557
    1SYS      H 1307   0.838   1.146   1.505
    1SYS      C 1308   0.968   0.991   1.426
    1SYS      H 1309   0.704   1.006   1.638
    1SYS      H 1310   0.802   0.865   1.601
    1SYS      H 1311   1.025   1.036   1.344
    1SYS      H 1312   1.036   1.021   1.506
    1SYS      H 1313   0.967   0.882   1.424
    1SYS      O 1314   0.609   1.969   1.376
    1SYS      C 1315   0.729   1.985   1.386
    1SYS      O 1316   0.817   1.913   1.313
    1SYS      O 1317   0.787   2.081   1.453
    1SYS      C 1318   0.945   1.965   1.320
    1SYS      C 1319   0.925   2.063   1.440
    1SYS      H 1320   0.976   2.017   1.229
    1SYS      C 1321   1.045   1.851   1.342
    1SYS      H 1322   0.978   2.158   1.438
    1SYS      H 1323   0.960   2.007   1.527
    1SYS      H 1324   1.040   1.792   1.433
    1SYS      H 1325   1.148   1.886   1.351
    1SYS      H 1326   1.045   1.781   1.258
    1SYS      O 1327   2.762   2.210   0.793
    1SYS      C 1328   2.835   2.248   0.704
    1SYS      O 1329   2.795   2.323   0.591
    1SYS      O 1330   0.001   2.222   0.697
    1SYS      C 1331   2.907   2.356   0.511
    1SYS      C 1332   0.057   2.272   0.574
    1SYS      H 1333   2.920   2.463   0.528
    1SYS      C 1334   2.874   2.322   0.365
    1SYS      H 1335   0.147   2.331   0.591
    1SYS      H 1336   0.087   2.184   0.518
    1SYS      H 1337   2.952   2.367   0.304
    1SYS      H 1338   2.781   2.363   0.326
    1SYS      H 1339   2.871   2.217   0.334
    1SYS      O 1340   1.096   0.166   1.457
    1SYS      C 1341   1.007   0.165   1.368
    1SYS      O 1342   0.895   0.233   1.373
    1SYS      O 1343   1.019   0.102   1.249
    1SYS      C 1344   0.808   0.188   1.274
    1SYS      C 1345   0.896   0.115   1.178
    1SYS      H 1346   0.735   0.256   1.231
    1SYS      C 1347   0.713   0.095   1.350
    1SYS      H 1348   0.910   0.179   1.091
    1SYS      H 1349   0.862   0.015   1.153
    1SYS      H 1350   0.666   0.147   1.434
    1SYS      H 1351   0.775   0.020   1.399
    1SYS      H 1352   0.646   0.037   1.287
    1SYS      O 1353   0.984   2.126   0.957
    1SYS      C 1354   0.915   2.228   0.952
    1SYS      O 1355   0.910   2.299   0.843
    1SYS      O 1356   0.848   2.276   1.047
    1SYS      C 1357   0.815   2.401   0.859
    1SYS      C 1358   0.761   2.373   1.005
    1SYS      H 1359   0.734   2.393   0.786
    1SYS      C 1360   0.884   2.541   0.843
    1SYS      H 1361   0.662   2.330   1.017
    1SYS      H 1362   0.770   2.460   1.071
    1SYS      H 1363   0.980   2.537   0.894
    1SYS      H 1364   0.840   2.628   0.893
    1SYS      H 1365   0.900   2.543   0.735
    1SYS      O 1366   2.242   1.643   2.353
    1SYS      C 1367   2.322   1.733   2.371
    1SYS      O 1368   2.393   1.750   2.480
    1SYS      O 1369   2.349   1.833   2.286
    1SYS      C 1370   2.465   1.859   2.483
    1SYS      C 1371   2.425   1.928   2.350
    1SYS      H 1372   2.569   1.828   2.488
    1SYS      C 1373   2.427   1.930   2.612
    1SYS      H 1374   2.519   1.939   2.295
    1SYS      H 1375   2.368   2.019   2.368
    1SYS      H 1376   2.471   2.026   2.586
    1SYS      H 1377   2.472   1.890   2.703
    1SYS      H 1378   2.320   1.948   2.621
    1SYS      O 1379   2.017   2.962   1.513
    1SYS      C 1380   1.934   0.084   1.553
    1SYS      O 1381   1.812   0.060   1.604
    1SYS      O 1382   1.954   0.212   1.542
    1SYS      C 1383   1.738   0.174   1.624
    1SYS      C 1384   1.843   0.290   1.584
    1SYS      H 1385   1.698   0.180   1.725
    1SYS      C 1386   1.601   0.161   1.556
    1SYS      H 1387   1.875   0.331   1.680
    1SYS      H 1388   1.799   0.353   1.506
    1SYS      H 1389   1.568   0.058   1.571
    1SYS      H 1390   1.618   0.187   1.452
    1SYS      H 1391   1.523   0.226   1.596
    1SYS      O 1392   2.106   0.128   2.960
    1SYS      C 1393   2.013   0.143   0.074
    1SYS      O 1394   1.915   0.058   0.105
    1SYS      O 1395   1.996   0.258   0.138
    1SYS      C 1396   1.847   0.104   0.225
    1SYS      C 1397   1.887   0.256   0.226
    1SYS      H 1398   1.739   0.099   0.211
    1SYS      C 1399   1.889   0.018   0.348
    1SYS      H 1400   1.922   0.299   0.320
    1SYS      H 1401   1.808   0.320   0.188
    1SYS      H 1402   1.850   2.878   0.346
    1SYS      H 1403   1.997   0.009   0.360
    1SYS      H 1404   1.845   0.058   0.439
    1SYS      O 1405   2.339   2.628   0.044
    1SYS      C 1406   2.358   2.540   2.918
    1SYS      O 1407   2.422   2.424   2.947
    1SYS      O 1408   2.324   2.545   2.788
    1SYS      C 1409   2.435   2.342   2.837
    1SYS      C 1410   2.374   2.430   2.723
    1SYS      H 1411   2.395   2.241   2.841
    1SYS      C 1412   2.585   2.330   2.808
    1SYS      H 1413   2.283   2.389   2.678
    1SYS      H 1414   2.444   2.447   2.641
    1SYS      H 1415   2.622   2.431   2.793
    1SYS      H 1416   2.618   2.282   2.716
    1SYS      H 1417   2.630   2.282   2.895
    1SYS      O 1418   1.399   1.225   0.542
    1SYS      C 1419   1.328   1.268   0.636
    1SYS      O 1420   1.209   1.332   0.616
    1SYS      O 1421   1.351   1.249   0.767
    1SYS      C 1422   1.137   1.347   0.746
    1SYS      C 1423   1.227   1.261   0.837
    1SYS      H 1424   1.032   1.318   0.740
    1SYS      C 1425   1.128   1.497   0.782
    1SYS      H 1426   1.190   1.159   0.839
    1SYS      H 1427   1.240   1.302   0.937
    1SYS      H 1428   1.067   1.555   0.713
    1SYS      H 1429   1.228   1.537   0.765
    1SYS      H 1430   1.092   1.528   0.880
    1SYS      O 1431   2.734   1.861   1.172
    1SYS      C 1432   2.764   1.977   1.193
    1SYS      O 1433   2.889   2.021   1.177
    1SYS      O 1434   2.681   2.072   1.231
    1SYS      C 1435   2.890   2.160   1.159
    1SYS      C 1436   2.748   2.196   1.210
    1SYS      H 1437   2.897   2.189   1.054
    1SYS      C 1438   0.035   2.226   1.249
    1SYS      H 1439   2.703   2.281   1.159
    1SYS      H 1440   2.763   2.230   1.313
    1SYS      H 1441   0.039   2.335   1.255
    1SYS      H 1442   0.135   2.205   1.211
    1SYS      H 1443   0.041   2.185   1.350
    1SYS      O 1444   2.872   2.625   0.703
    1SYS      C 1445   2.780   2.612   0.786
    1SYS      O 1446   2.657   2.653   0.761
    1SYS      O 1447   2.788   2.544   0.900
    1SYS      C 1448   2.563   2.603   0.861
    1SYS      C 1449   2.662   2.533   0.967
    1SYS      H 1450   2.506   2.523   0.815
    1SYS      C 1451   2.487   2.720   0.918
    1SYS      H 1452   2.642   2.430   0.998
    1SYS      H 1453   2.672   2.591   1.059
    1SYS      H 1454   2.438   2.776   0.838
    1SYS      H 1455   2.558   2.789   0.963
    1SYS      H 1456   2.413   2.682   0.988
    1SYS      O 1457   2.199   2.738   1.912
    1SYS      C 1458   2.247   2.840   1.953
    1SYS      O 1459   2.219   2.893   2.068
    1SYS      O 1460   2.333   2.909   1.887
    1SYS      C 1461   2.293   0.049   2.093
    1SYS      C 1462   2.359   0.073   1.956
    1SYS      H 1463   2.371   0.026   2.166
    1SYS      C 1464   2.205   0.152   2.146
    1SYS      H 1465   2.464   0.101   1.961
    1SYS      H 1466   2.301   0.146   1.900
    1SYS      H 1467   2.246   0.253   2.144
    1SYS      H 1468   2.206   0.140   2.254
    1SYS      H 1469   2.099   0.149   2.120
    1SYS      O 1470   1.954   0.117   1.828
    1SYS      C 1471   1.889   0.042   1.901
    1SYS      O 1472   1.936   2.894   1.966
    1SYS      O 1473   1.762   0.060   1.922
    1SYS      C 1474   1.830   2.842   2.048
    1SYS      C 1475   1.704   2.911   1.994
    1SYS      H 1476   1.845   2.873   2.151
    1SYS      C 1477   1.826   2.687   2.046
    1SYS      H 1478   1.650   2.948   2.081
    1SYS      H 1479   1.659   2.838   1.927
    1SYS      H 1480   1.927   2.647   2.041
    1SYS      H 1481   1.793   2.656   1.947
    1SYS      H 1482   1.770   2.639   2.126
    1SYS      O 1483   1.533   0.695   1.387
    1SYS      C 1484   1.436   0.643   1.443
    1SYS      O 1485   1.361   0.550   1.387
    1SYS      O 1486   1.392   0.676   1.563
    1SYS      C 1487   1.249   0.520   1.473
    1SYS      C 1488   1.280   0.600   1.604
    1SYS      H 1489   1.246   0.413   1.495
    1SYS      C 1490   1.120   0.576   1.406
    1SYS      H 1491   1.313   0.529   1.680
    1SYS      H 1492   1.200   0.655   1.654
    1SYS      H 1493   1.022   0.545   1.444
    1SYS      H 1494   1.111   0.548   1.301
    1SYS      H 1495   1.118   0.684   1.417
    1SYS      O 1496   2.759   2.717   2.190
    1SYS      C 1497   2.708   2.744   2.300
    1SYS      O 1498   2.785   2.761   2.402
    1SYS      O 1499   2.579   2.753   2.332
    1SYS      C 1500   2.705   2.762   2.518
    1SYS      C 1501   2.561   2.764   2.471
    1SYS      H 1502   2.730   2.855   2.569
    1SYS      C 1503   2.738   2.638   2.604
    1SYS      H 1504   2.514   2.859   2.498
    1SYS      H 1505   2.505   2.676   2.503
    1SYS      H 1506   2.682   2.624   2.697
    1SYS      H 1507   2.843   2.641   2.632
    1SYS      H 1508   2.736   2.547   2.544
    1SYS      O 1509   2.516   2.167   1.887
    1SYS      C 1510   2.449   2.261   1.921
    1SYS      O 1511   2.482   2.379   1.890
    1SYS      O 1512   2.337   2.260   1.993
    1SYS      C 1513   2.395   2.475   1.946
    1SYS      C 1514   2.290   2.390   2.024
    1SYS      H 1515   2.355   2.538   1.867
    1SYS      C 1516   2.498   2.554   2.027
    1SYS      H 1517   2.193   2.402   1.975
    1SYS      H 1518   2.291   2.403   2.132
    1SYS      H 1519   2.459   2.594   2.120
    1SYS      H 1520   2.544   2.628   1.962
    1SYS      H 1521   2.584   2.494   2.059
    1SYS      O 1522   0.547   1.343   1.048
    1SYS      C 1523   0.464   1.252   1.043
    1SYS      O 1524   0.478   1.146   0.965
    1SYS      O 1525   0.350   1.236   1.113
    1SYS      C 1526   0.377   1.049   0.987
    1SYS      C 1527   0.272   1.127   1.063
    1SYS      H 1528   0.426   0.983   1.058
    1SYS      C 1529   0.342   0.974   0.860
    1SYS      H 1530   0.221   1.067   1.139
    1SYS      H 1531   0.199   1.178   1.001
    1SYS      H 1532   0.413   0.895   0.835
    1SYS      H 1533   0.330   1.049   0.781
    1SYS      H 1534   0.245   0.926   0.873
    1SYS      O 1535   0.289   0.034   2.095
    1SYS      C 1536   0.385   2.950   2.163
    1SYS      O 1537   0.497   2.896   2.116
    1SYS      O 1538   0.390   2.961   2.294
    1SYS      C 1539   0.578   2.845   2.220
    1SYS      C 1540   0.504   2.885   2.342
    1SYS      H 1541   0.576   2.736   2.224
    1SYS      C 1542   0.727   2.889   2.232
    1SYS      H 1543   0.555   2.950   2.412
    1SYS      H 1544   0.472   2.796   2.396
    1SYS      H 1545   0.776   2.847   2.320
    1SYS      H 1546   0.749   0.033   2.242
    1SYS      H 1547   0.780   2.856   2.143
    1SYS      O 1548   0.340   2.149   0.462
    1SYS      C 1549   0.298   2.125   0.348
    1SYS      O 1550   0.364   2.165   0.244
    1SYS      O 1551   0.191   2.063   0.317
    1SYS      C 1552   0.303   2.105   0.131
    1SYS      C 1553   0.174   2.049   0.185
    1SYS      H 1554   0.371   2.027   0.095
    1SYS      C 1555   0.278   2.217   0.027
    1SYS      H 1556   0.167   1.945   0.154
    1SYS      H 1557   0.079   2.091   0.151
    1SYS      H 1558   0.362   2.262   2.937
    1SYS      H 1559   0.222   2.300   0.069
    1SYS      H 1560   0.218   2.171   2.910
    1SYS      O 1561   1.705   1.507   0.341
    1SYS      C 1562   1.823   1.525   0.346
    1SYS      O 1563   1.906   1.444   0.416
    1SYS      O 1564   1.890   1.626   0.285
    1SYS      C 1565   2.043   1.484   0.387
    1SYS      C 1566   2.023   1.615   0.316
    1SYS      H 1567   2.092   1.417   0.317
    1SYS      C 1568   2.120   1.485   0.522
    1SYS      H 1569   2.074   1.626   0.220
    1SYS      H 1570   2.051   1.700   0.378
    1SYS      H 1571   2.096   1.396   0.580
    1SYS      H 1572   2.098   1.572   0.584
    1SYS      H 1573   2.225   1.487   0.494
    1SYS      O 1574   2.906   1.988   0.473
    1SYS      C 1575   2.824   1.938   0.554
    1SYS      O 1576   2.853   1.884   0.676
    1SYS      O 1577   2.687   1.938   0.535
    1SYS      C 1578   2.732   1.847   0.745
    1SYS      C 1579   2.623   1.868   0.644
    1SYS      H 1580   2.716   1.909   0.834
    1SYS      C 1581   2.742   1.699   0.791
    1SYS      H 1582   2.540   1.932   0.676
    1SYS      H 1583   2.590   1.772   0.605
    1SYS      H 1584   2.651   1.667   0.841
    1SYS      H 1585   2.820   1.698   0.868
    1SYS      H 1586   2.775   1.630   0.713
    1SYS      O 1587   0.995   0.762   1.765
    1SYS      C 1588   0.994   0.857   1.846
    1SYS      O 1589   0.898   0.877   1.929
    1SYS      O 1590   1.076   0.951   1.842
    1SYS      C 1591   0.928   0.990   2.011
    1SYS      C 1592   1.038   1.053   1.933
    1SYS      H 1593   0.962   0.952   2.107
    1SYS      C 1594   0.812   1.095   2.029
    1SYS      H 1595   1.106   1.078   2.014
    1SYS      H 1596   1.009   1.143   1.879
    1SYS      H 1597   0.727   1.061   2.087
    1SYS      H 1598   0.765   1.106   1.931
    1SYS      H 1599   0.859   1.188   2.063
    1SYS      O 1600   0.147   1.405   1.308
    1SYS      C 1601   0.096   1.448   1.207
    1SYS      O 1602   0.021   1.562   1.208
    1SYS      O 1603   0.098   1.386   1.091
    1SYS      C 1604   2.925   1.577   1.082
    1SYS      C 1605   0.033   1.469   0.992
    1SYS      H 1606   2.927   1.681   1.049
    1SYS      C 1607   2.780   1.527   1.115
    1SYS      H 1608   0.112   1.513   0.931
    1SYS      H 1609   2.928   1.408   0.931
    1SYS      H 1610   2.701   1.591   1.077
    1SYS      H 1611   2.755   1.515   1.221
    1SYS      H 1612   2.761   1.427   1.076
    1SYS      O 1613   2.462   1.592   0.038
    1SYS      C 1614   2.511   1.579   2.889
    1SYS      O 1615   2.472   1.499   2.793
    1SYS      O 1616   2.615   1.644   2.851
    1SYS      C 1617   2.553   1.521   2.679
    1SYS      C 1618   2.674   1.606   2.726
    1SYS      H 1619   2.489   1.582   2.616
    1SYS      C 1620   2.590   1.379   2.628
    1SYS      H 1621   2.692   1.691   2.660
    1SYS      H 1622   2.762   1.543   2.737
    1SYS      H 1623   2.666   1.322   2.681
    1SYS      H 1624   2.632   1.389   2.528
    1SYS      H 1625   2.503   1.314   2.615
    1SYS      O 1626   1.054   0.416   2.021
    1SYS      C 1627   1.098   0.515   2.081
    1SYS      O 1628   1.167   0.509   2.200
    1SYS      O 1629   1.092   0.637   2.035
    1SYS      C 1630   1.196   0.645   2.247
    1SYS      C 1631   1.144   0.731   2.124
    1SYS      H 1632   1.302   0.667   2.261
    1SYS      C 1633   1.127   0.661   2.379
    1SYS      H 1634   1.224   0.798   2.091
    1SYS      H 1635   1.056   0.780   2.166
    1SYS      H 1636   1.153   0.751   2.436
    1SYS      H 1637   1.160   0.572   2.432
    1SYS      H 1638   1.019   0.668   2.365
    1SYS      O 1639   0.167   0.596   2.322
    1SYS      C 1640   0.214   0.710   2.322
    1SYS      O 1641   0.211   0.801   2.223
    1SYS      O 1642   0.273   0.759   2.423
    1SYS      C 1643   0.278   0.917   2.265
    1SYS      C 1644   0.343   0.875   2.392
    1SYS      H 1645   0.197   0.988   2.284
    1SYS      C 1646   0.363   0.961   2.157
    1SYS      H 1647   0.341   0.950   2.471
    1SYS      H 1648   0.449   0.855   2.379
    1SYS      H 1649   0.413   0.880   2.104
    1SYS      H 1650   0.440   1.025   2.200
    1SYS      H 1651   0.311   1.021   2.083
    1SYS      O 1652   2.577   0.636   0.583
    1SYS      C 1653   2.554   0.669   0.699
    1SYS      O 1654   2.452   0.745   0.745
    1SYS      O 1655   2.639   0.627   0.794
    1SYS      C 1656   2.454   0.737   0.888
    1SYS      C 1657   2.599   0.688   0.916
    1SYS      H 1658   2.397   0.651   0.922
    1SYS      C 1659   2.396   0.857   0.966
    1SYS      H 1660   2.602   0.615   0.997
    1SYS      H 1661   2.674   0.762   0.943
    1SYS      H 1662   2.435   0.953   0.932
    1SYS      H 1663   2.407   0.828   1.070
    1SYS      H 1664   2.289   0.865   0.950
    1SYS      O 1665   1.121   1.883   0.259
    1SYS      C 1666   1.192   1.949   0.185
    1SYS      O 1667   1.276   2.045   0.224
    1SYS      O 1668   1.212   1.916   0.059
    1SYS      C 1669   1.372   2.079   0.122
    1SYS      C 1670   1.314   2.001   0.002
    1SYS      H 1671   1.470   2.043   0.152
    1SYS      C 1672   1.365   2.233   0.108
    1SYS      H 1673   1.382   1.938   2.906
    1SYS      H 1674   1.259   2.071   2.901
    1SYS      H 1675   1.410   2.267   0.014
    1SYS      H 1676   1.431   2.279   0.182
    1SYS      H 1677   1.263   2.269   0.116
    1SYS      O 1678   1.117   1.055   1.099
    1SYS      C 1679   1.004   1.097   1.077
    1SYS      O 1680   0.900   1.011   1.059
    1SYS      O 1681   0.966   1.224   1.070
    1SYS      C 1682   0.786   1.082   1.015
    1SYS      C 1683   0.827   1.227   1.047
    1SYS      H 1684   0.702   1.048   1.076
    1SYS      C 1685   0.783   1.042   0.866
    1SYS      H 1686   0.769   1.251   1.136
    1SYS      H 1687   0.812   1.304   0.971
    1SYS      H 1688   0.715   0.958   0.854
    1SYS      H 1689   0.886   1.025   0.834
    1SYS      H 1690   0.732   1.120   0.809
    1SYS      O 1691   2.092   1.021   0.230
    1SYS      C 1692   2.117   0.959   0.330
    1SYS      O 1693   2.049   0.955   0.447
    1SYS      O 1694   2.229   0.887   0.338
    1SYS      C 1695   2.115   0.881   0.538
    1SYS      C 1696   2.227   0.810   0.459
    1SYS      H 1697   2.031   0.815   0.560
    1SYS      C 1698   2.173   0.974   0.647
    1SYS      H 1699   2.209   0.703   0.448
    1SYS      H 1700   2.324   0.820   0.508
    1SYS      H 1701   2.218   0.910   0.723
    1SYS      H 1702   2.094   1.039   0.684
    1SYS      H 1703   2.249   1.040   0.606
    1SYS      O 1704   1.617   2.216   0.383
    1SYS      C 1705   1.708   2.157   0.445
    1SYS      O 1706   1.784   2.056   0.404
    1SYS      O 1707   1.747   2.192   0.564
    1SYS      C 1708   1.877   2.018   0.510
    1SYS      C 1709   1.837   2.109   0.622
    1SYS      H 1710   1.981   2.038   0.483
    1SYS      C 1711   1.857   1.871   0.550
    1SYS      H 1712   1.921   2.177   0.634
    1SYS      H 1713   1.788   2.056   0.704
    1SYS      H 1714   1.937   1.841   0.617
    1SYS      H 1715   1.840   1.799   0.470
    1SYS      H 1716   1.761   1.856   0.599
    1SYS      O 1717   0.805   1.311   1.717
    1SYS      C 1718   0.691   1.343   1.743
    1SYS      O 1719   0.657   1.434   1.837
    1SYS      O 1720   0.583   1.290   1.687
    1SYS      C 1721   0.519   1.428   1.868
    1SYS      C 1722   0.466   1.347   1.749
    1SYS      H 1723   0.469   1.524   1.876
    1SYS      C 1724   0.496   1.373   2.011
    1SYS      H 1725   0.415   1.413   1.679
    1SYS      H 1726   0.397   1.268   1.780
    1SYS      H 1727   0.389   1.375   2.032
    1SYS      H 1728   0.548   1.419   2.095
    1SYS      H 1729   0.536   1.272   2.023
    1SYS      O 1730   0.438   0.004   2.954
    1SYS      C 1731   0.475   0.065   0.089
    1SYS      O 1732   0.576   0.155   0.091
    1SYS      O 1733   0.425   0.051   0.204
    1SYS      C 1734   0.590   0.212   0.219
    1SYS      C 1735   0.510   0.117   0.302
    1SYS      H 1736   0.530   0.302   0.203
    1SYS      C 1737   0.738   0.232   0.254
    1SYS      H 1738   0.457   0.164   0.385
    1SYS      H 1739   0.589   0.054   0.342
    1SYS      H 1740   0.745   0.288   0.347
    1SYS      H 1741   0.794   0.281   0.175
    1SYS      H 1742   0.790   0.138   0.274
    1SYS      O 1743   2.758   1.733   1.518
    1SYS      C 1744   2.663   1.670   1.476
    1SYS      O 1745   2.642   1.546   1.501
    1SYS      O 1746   2.568   1.729   1.415
    1SYS      C 1747   2.502   1.521   1.473
    1SYS      C 1748   2.467   1.638   1.382
    1SYS      H 1749   2.443   1.523   1.565
    1SYS      C 1750   2.482   1.380   1.412
    1SYS      H 1751   2.366   1.679   1.389
    1SYS      H 1752   2.477   1.617   1.275
    1SYS      H 1753   2.486   1.303   1.488
    1SYS      H 1754   2.551   1.359   1.330
    1SYS      H 1755   2.382   1.367   1.370
    1SYS      O 1756   0.148   2.682   2.210
    1SYS      C 1757   0.218   2.636   2.121
    1SYS      O 1758   0.170   2.576   2.019
    1SYS      O 1759   0.352   2.640   2.125
    1SYS      C 1760   0.273   2.544   1.933
    1SYS      C 1761   0.399   2.596   2.003
    1SYS      H 1762   0.252   2.602   1.843
    1SYS      C 1763   0.266   2.394   1.911
    1SYS      H 1764   0.443   2.679   1.948
    1SYS      H 1765   0.478   2.522   2.015
    1SYS      H 1766   0.175   2.373   1.855
    1SYS      H 1767   0.272   2.334   2.002
    1SYS      H 1768   0.345   2.361   1.844
    1SYS      O 1769   0.359   2.270   1.575
    1SYS      C 1770   0.406   2.289   1.466
    1SYS      O 1771   0.532   2.274   1.438
    1SYS      O 1772   0.333   2.328   1.359
    1SYS      C 1773   0.562   2.328   1.313
    1SYS      C 1774   0.427   2.370   1.253
    1SYS      H 1775   0.605   2.251   1.249
    1SYS      C 1776   0.661   2.442   1.349
    1SYS      H 1777   0.425   2.316   1.159
    1SYS      H 1778   0.427   2.479   1.243
    1SYS      H 1779   0.639   2.490   1.445
    1SYS      H 1780   0.672   2.512   1.267
    1SYS      H 1781   0.764   2.410   1.365
    1SYS      O 1782   1.483   1.541   1.067
    1SYS      C 1783   1.511   1.569   1.186
    1SYS      O 1784   1.450   1.512   1.285
    1SYS      O 1785   1.606   1.655   1.218
    1SYS      C 1786   1.475   1.589   1.402
    1SYS      C 1787   1.603   1.668   1.362
    1SYS      H 1788   1.494   1.519   1.484
    1SYS      C 1789   1.353   1.678   1.424
    1SYS      H 1790   1.693   1.620   1.402
    1SYS      H 1791   1.601   1.769   1.402
    1SYS      H 1792   1.358   1.725   1.522
    1SYS      H 1793   1.266   1.615   1.440
    1SYS      H 1794   1.334   1.746   1.341
    1SYS      O 1795   2.513   0.829   2.632
    1SYS      C 1796   2.425   0.834   2.553
    1SYS      O 1797   2.404   0.945   2.493
    1SYS      O 1798   2.335   0.740   2.521
    1SYS      C 1799   2.290   0.945   2.411
    1SYS      C 1800   2.239   0.793   2.430
    1SYS      H 1801   2.334   0.957   2.312
    1SYS      C 1802   2.191   1.056   2.448
    1SYS      H 1803   2.244   0.735   2.338
    1SYS      H 1804   2.135   0.796   2.463
    1SYS      H 1805   2.243   1.151   2.461
    1SYS      H 1806   2.137   1.029   2.538
    1SYS      H 1807   2.122   1.075   2.366
    1SYS      O 1808   1.649   0.172   1.197
    1SYS      C 1809   1.541   0.223   1.174
    1SYS      O 1810   1.426   0.174   1.211
    1SYS      O 1811   1.529   0.328   1.101
    1SYS      C 1812   1.319   0.242   1.146
    1SYS      C 1813   1.390   0.361   1.086
    1SYS      H 1814   1.246   0.283   1.216
    1SYS      C 1815   1.243   0.151   1.045
    1SYS      H 1816   1.367   0.443   1.153
    1SYS      H 1817   1.366   0.386   0.983
    1SYS      H 1818   1.198   0.064   1.094
    1SYS      H 1819   1.318   0.112   0.975
    1SYS      H 1820   1.165   0.202   0.988
    1SYS      O 1821   1.512   0.087   0.412
    1SYS      C 1822   1.470   0.038   0.306
    1SYS      O 1823   1.340   0.038   0.275
    1SYS      O 1824   1.544   2.943   0.213
    1SYS      C 1825   1.325   0.013   0.141
    1SYS      C 1826   1.459   2.916   0.104
    1SYS      H 1827   1.313   0.106   0.086
    1SYS      C 1828   1.208   2.886   0.120
    1SYS      H 1829   1.498   2.960   0.012
    1SYS      H 1830   1.458   2.809   0.082
    1SYS      H 1831   1.190   2.833   0.027
    1SYS      H 1832   1.117   2.941   0.144
    1SYS      H 1833   1.222   2.807   0.194
    1SYS      O 1834   1.860   0.177   2.237
    1SYS      C 1835   1.797   0.280   2.261
    1SYS      O 1836   1.804   0.348   2.383
    1SYS      O 1837   1.709   0.345   2.182
    1SYS      C 1838   1.716   0.452   2.393
    1SYS      C 1839   1.652   0.450   2.255
    1SYS      H 1840   1.763   0.547   2.420
    1SYS      C 1841   1.618   0.403   2.497
    1SYS      H 1842   1.682   0.542   2.206
    1SYS      H 1843   1.545   0.430   2.262
    1SYS      H 1844   1.673   0.354   2.577
    1SYS      H 1845   1.548   0.331   2.454
    1SYS      H 1846   1.555   0.478   2.545
    1SYS      O 1847   1.274   0.979   2.658
    1SYS      C 1848   1.280   1.092   2.706
    1SYS      O 1849   1.200   1.138   2.798
    1SYS      O 1850   1.353   1.190   2.654
    1SYS      C 1851   1.208   1.271   2.820
    1SYS      C 1852   1.322   1.308   2.729
    1SYS      H 1853   1.228   1.285   2.926
    1SYS      C 1854   1.079   1.336   2.779
    1SYS      H 1855   1.415   1.327   2.783
    1SYS      H 1856   1.306   1.395   2.665
    1SYS      H 1857   1.047   1.305   2.680
    1SYS      H 1858   1.100   1.443   2.777
    1SYS      H 1859   1.000   1.311   2.850
    1SYS      O 1860   0.448   0.322   2.044
    1SYS      C 1861   0.510   0.352   2.148
    1SYS      O 1862   0.639   0.333   2.168
    1SYS      O 1863   0.460   0.422   2.246
    1SYS      C 1864   0.680   0.385   2.290
    1SYS      C 1865   0.550   0.428   2.354
    1SYS      H 1866   0.740   0.471   2.260
    1SYS      C 1867   0.777   0.299   2.379
    1SYS      H 1868   0.558   0.533   2.382
    1SYS      H 1869   0.517   0.358   2.431
    1SYS      H 1870   0.854   0.251   2.318
    1SYS      H 1871   0.722   0.220   2.431
    1SYS      H 1872   0.825   0.356   2.458
    1SYS      O 1873   1.331   2.409   2.434
    1SYS      C 1874   1.269   2.433   2.335
    1SYS      O 1875   1.308   2.404   2.210
    1SYS      O 1876   1.150   2.487   2.333
    1SYS      C 1877   1.227   2.462   2.110
    1SYS      C 1878   1.106   2.506   2.198
    1SYS      H 1879   1.191   2.386   2.041
    1SYS      C 1880   1.298   2.578   2.049
    1SYS      H 1881   1.020   2.447   2.168
    1SYS      H 1882   1.090   2.614   2.192
    1SYS      H 1883   1.270   2.598   1.946
    1SYS      H 1884   1.405   2.559   2.049
    1SYS      H 1885   1.274   2.671   2.101
    1SYS      O 1886   1.341   2.559   0.108
    1SYS      C 1887   1.355   2.543   2.948
    1SYS      O 1888   1.443   2.603   2.871
    1SYS      O 1889   1.285   2.458   2.870
    1SYS      C 1890   1.411   2.596   2.734
    1SYS      C 1891   1.314   2.481   2.730
    1SYS      H 1892   1.503   2.576   2.679
    1SYS      C 1893   1.355   2.731   2.690
    1SYS      H 1894   1.361   2.398   2.677
    1SYS      H 1895   1.226   2.508   2.672
    1SYS      H 1896   1.359   2.735   2.581
    1SYS      H 1897   1.403   2.821   2.728
    1SYS      H 1898   1.249   2.749   2.706
    1SYS      O 1899   0.328   1.628   0.997
    1SYS      C 1900   0.307   1.672   1.112
    1SYS      O 1901   0.222   1.773   1.151
    1SYS      O 1902   0.377   1.642   1.210
    1SYS      C 1903   0.231   1.801   1.290
    1SYS      C 1904   0.345   1.701   1.334
    1SYS      H 1905   0.131   1.776   1.326
    1SYS      C 1906   0.261   1.945   1.316
    1SYS      H 1907   0.309   1.632   1.410
    1SYS      H 1908   0.438   1.750   1.362
    1SYS      H 1909   0.200   2.016   1.261
    1SYS      H 1910   0.366   1.971   1.300
    1SYS      H 1911   0.255   1.969   1.422
    1SYS      O 1912   0.146   1.223   2.061
    1SYS      C 1913   0.072   1.123   2.043
    1SYS      O 1914   2.943   1.082   2.132
    1SYS      O 1915   0.065   1.055   1.931
    1SYS      C 1916   2.854   0.985   2.069
    1SYS      C 1917   2.929   0.953   1.939
    1SYS      H 1918   2.762   1.038   2.044
    1SYS      C 1919   2.825   0.864   2.163
    1SYS      H 1920   2.871   0.945   1.847
    1SYS      H 1921   0.035   0.870   1.958
    1SYS      H 1922   2.765   0.784   2.120
    1SYS      H 1923   2.776   0.900   2.254
    1SYS      H 1924   2.918   0.821   2.200
    1SYS      O 1925   0.168   0.090   0.816
    1SYS      C 1926   0.165   0.051   0.697
    1SYS      O 1927   0.082   2.931   0.650
    1SYS      O 1928   0.253   0.086   0.602
    1SYS      C 1929   0.104   2.908   0.512
    1SYS      C 1930   0.214   0.041   0.474
    1SYS      H 1931   0.027   2.921   0.436
    1SYS      C 1932   0.156   2.767   0.492
    1SYS      H 1933   0.178   0.125   0.415
    1SYS      H 1934   0.298   2.948   0.432
    1SYS      H 1935   0.073   2.701   0.518
    1SYS      H 1936   0.241   2.744   0.557
    1SYS      H 1937   0.187   2.749   0.389
    1SYS      O 1938   2.054   2.467   0.463
    1SYS      C 1939   2.083   2.548   0.548
    1SYS      O 1940   2.004   2.596   0.638
    1SYS      O 1941   2.209   2.592   0.569
    1SYS      C 1942   2.068   2.696   0.714
    1SYS      C 1943   2.216   2.682   0.675
    1SYS      H 1944   2.060   2.682   0.822
    1SYS      C 1945   2.023   2.835   0.666
    1SYS      H 1946   2.270   2.642   0.761
    1SYS      H 1947   2.268   2.773   0.644
    1SYS      H 1948   1.915   2.848   0.675
    1SYS      H 1949   2.064   2.870   0.571
    1SYS      H 1950   2.065   2.906   0.737
    1SYS      O 1951   0.980   1.391   1.322
    1SYS      C 1952   0.864   1.420   1.337
    1SYS      O 1953   0.832   1.552   1.333
    1SYS      O 1954   0.765   1.335   1.375
    1SYS      C 1955   0.709   1.564   1.393
    1SYS      C 1956   0.651   1.418   1.402
    1SYS      H 1957   0.641   1.625   1.333
    1SYS      C 1958   0.718   1.622   1.534
    1SYS      H 1959   0.581   1.400   1.320
    1SYS      H 1960   0.600   1.394   1.495
    1SYS      H 1961   0.816   1.604   1.577
    1SYS      H 1962   0.649   1.593   1.613
    1SYS      H 1963   0.712   1.730   1.524
    1SYS      O 1964   0.574   0.112   1.802
    1SYS      C 1965   0.684   0.160   1.828
    1SYS      O 1966   0.725   0.272   1.777
    1SYS      O 1967   0.775   0.109   1.914
    1SYS      C 1968   0.861   0.302   1.810
    1SYS      C 1969   0.897   0.185   1.902
    1SYS      H 1970   0.860   0.399   1.860
    1SYS      C 1971   0.951   0.317   1.695
    1SYS      H 1972   0.918   0.215   2.005
    1SYS      H 1973   0.978   0.125   1.861
    1SYS      H 1974   1.048   0.353   1.730
    1SYS      H 1975   0.914   0.394   1.628
    1SYS      H 1976   0.951   0.219   1.647
    1SYS      O 1977   2.812   1.879   2.466
    1SYS      C 1978   2.928   1.859   2.430
    1SYS      O 1979   0.029   1.916   2.322
    1SYS      O 1980   0.045   1.766   2.487
    1SYS      C 1981   0.151   1.845   2.295
    1SYS      C 1982   0.169   1.759   2.423
    1SYS      H 1983   0.232   1.915   2.276
    1SYS      C 1984   0.125   1.775   2.167
    1SYS      H 1985   0.250   1.799   2.485
    1SYS      H 1986   0.192   1.656   2.398
    1SYS      H 1987   0.090   1.845   2.092
    1SYS      H 1988   0.053   1.693   2.166
    1SYS      H 1989   0.218   1.737   2.125
    1SYS      O 1990   1.469   2.300   1.248
    1SYS      C 1991   1.459   2.337   1.133
    1SYS      O 1992   1.483   2.264   1.025
    1SYS      O 1993   1.433   2.467   1.103
    1SYS      C 1994   1.487   2.344   0.906
    1SYS      C 1995   1.424   2.481   0.964
    1SYS      H 1996   1.416   2.306   0.832
    1SYS      C 1997   1.631   2.342   0.848
    1SYS      H 1998   1.317   2.488   0.947
    1SYS      H 1999   1.484   2.568   0.936
    1SYS      H 2000   1.663   2.239   0.833
    1SYS      H 2001   1.708   2.389   0.909
    1SYS      H 2002   1.638   2.388   0.749
    1SYS      O 2003   1.402   0.935   2.271
    1SYS      C 2004   1.439   1.045   2.231
    1SYS      O 2005   1.546   1.110   2.279
    1SYS      O 2006   1.374   1.121   2.140
    1SYS      C 2007   1.551   1.250   2.240
    1SYS      C 2008   1.419   1.253   2.155
    1SYS      H 2009   1.639   1.262   2.177
    1SYS      C 2010   1.541   1.346   2.366
    1SYS      H 2011   1.446   1.300   2.061
    1SYS      H 2012   1.341   1.309   2.206
    1SYS      H 2013   1.455   1.303   2.417
    1SYS      H 2014   1.530   1.453   2.346
    1SYS      H 2015   1.623   1.326   2.435
    1SYS      O 2016   0.055   1.332   0.280
    1SYS      C 2017   0.037   1.453   0.293
    1SYS      O 2018   2.881   1.513   0.302
    1SYS      O 2019   0.133   1.536   0.303
    1SYS      C 2020   2.899   1.658   0.317
    1SYS      C 2021   0.088   1.670   0.325
    1SYS      H 2022   2.852   1.685   0.411
    1SYS      C 2023   2.837   1.732   0.200
    1SYS      H 2024   0.140   1.705   0.414
    1SYS      H 2025   0.125   1.734   0.245
    1SYS      H 2026   2.732   1.706   0.186
    1SYS      H 2027   2.883   1.700   0.106
    1SYS      H 2028   2.862   1.837   0.215
    1SYS      O 2029   0.034   1.429   2.787
    1SYS      C 2030   0.058   1.377   2.680
    1SYS      O 2031   0.174   1.337   2.630
    1SYS      O 2032   2.913   1.327   2.599
    1SYS      C 2033   0.156   1.238   2.532
    1SYS      C 2034   0.011   1.244   2.503
    1SYS      H 2035   0.177   1.144   2.584
    1SYS      C 2036   0.251   1.274   2.423
    1SYS      H 2037   2.918   1.150   2.497
    1SYS      H 2038   0.003   1.291   2.405
    1SYS      H 2039   0.247   1.210   2.335
    1SYS      H 2040   0.349   1.250   2.463
    1SYS      H 2041   0.251   1.377   2.387
    1SYS      O 2042   2.857   1.049   0.877
    1SYS      C 2043   2.825   1.021   0.994
    1SYS      O 2044   2.732   1.078   1.062
    1SYS      O 2045   2.881   0.921   1.071
    1SYS      C 2046   2.741   1.053   1.201
    1SYS      C 2047   2.812   0.915   1.195
    1SYS      H 2048   2.641   1.046   1.244
    1SYS      C 2049   2.814   1.162   1.275
    1SYS      H 2050   2.733   0.841   1.183
    1SYS      H 2051   2.872   0.897   1.285
    1SYS      H 2052   2.922   1.158   1.263
    1SYS      H 2053   2.789   1.150   1.380
    1SYS      H 2054   2.778   1.261   1.248
    1SYS      O 2055   2.056   1.321   0.098
    1SYS      C 2056   2.074   1.386   0.000
    1SYS      O 2057   2.094   1.334   2.841
    1SYS      O 2058   2.067   1.522   0.001
    1SYS      C 2059   2.074   1.440   2.755
    1SYS      C 2060   2.100   1.570   2.835
    1SYS      H 2061   1.969   1.439   2.727
    1SYS      C 2062   2.170   1.418   2.637
    1SYS      H 2063   2.049   1.658   2.796
    1SYS      H 2064   2.203   1.605   2.841
    1SYS      H 2065   2.156   1.496   2.562
    1SYS      H 2066   2.143   1.323   2.590
    1SYS      H 2067   2.273   1.409   2.670
    1SYS      O 2068   1.147   0.516   2.663
    1SYS      C 2069   1.122   0.601   2.748
    1SYS      O 2070   1.123   0.577   2.870
    1SYS      O 2071   1.092   0.726   2.718
    1SYS      C 2072   1.062   0.684   2.937
    1SYS      C 2073   1.065   0.800   2.836
    1SYS      H 2074   1.125   0.703   0.061
    1SYS      C 2075   0.921   0.647   0.027
    1SYS      H 2076   1.147   0.871   2.841
    1SYS      H 2077   0.971   0.855   2.834
    1SYS      H 2078   0.874   0.740   0.061
    1SYS      H 2079   0.923   0.577   0.110
    1SYS      H 2080   0.858   0.613   2.907
    1SYS      O 2081   1.403   0.445   0.726
    1SYS      C 2082   1.287   0.491   0.760
    1SYS      O 2083   1.266   0.611   0.801
    1SYS      O 2084   1.177   0.420   0.751
    1SYS      C 2085   1.132   0.638   0.801
    1SYS      C 2086   1.070   0.490   0.817
    1SYS      H 2087   1.114   0.674   0.700
    1SYS      C 2088   1.105   0.738   0.912
    1SYS      H 2089   0.975   0.469   0.767
    1SYS      H 2090   1.064   0.460   0.922
    1SYS      H 2091   1.162   0.826   0.882
    1SYS      H 2092   1.136   0.691   1.005
    1SYS      H 2093   1.006   0.783   0.915
    1SYS      O 2094   0.812   0.436   1.060
    1SYS      C 2095   0.736   0.493   1.137
    1SYS      O 2096   0.777   0.528   1.262
    1SYS      O 2097   0.610   0.510   1.123
    1SYS      C 2098   0.680   0.596   1.334
    1SYS      C 2099   0.561   0.577   1.237
    1SYS      H 2100   0.715   0.699   1.327
    1SYS      C 2101   0.656   0.551   1.479
    1SYS      H 2102   0.517   0.670   1.202
    1SYS      H 2103   0.480   0.517   1.279
    1SYS      H 2104   0.573   0.605   1.524
    1SYS      H 2105   0.742   0.572   1.543
    1SYS      H 2106   0.644   0.443   1.488
    1SYS      O 2107   0.968   0.182   0.838
    1SYS      C 2108   0.869   0.113   0.810
    1SYS      O 2109   0.764   0.150   0.732
    1SYS      O 2110   0.851   2.959   0.866
    1SYS      C 2111   0.683   0.034   0.712
    1SYS      C 2112   0.731   2.899   0.817
    1SYS      H 2113   0.696   2.952   0.613
    1SYS      C 2114   0.537   0.071   0.724
    1SYS      H 2115   0.743   2.798   0.778
    1SYS      H 2116   0.662   2.881   0.900
    1SYS      H 2117   0.471   2.948   0.741
    1SYS      H 2118   0.503   0.117   0.631
    1SYS      H 2119   0.528   0.140   0.808
    1SYS      O 2120   2.422   2.481   1.195
    1SYS      C 2121   2.301   2.494   1.204
    1SYS      O 2122   2.221   2.387   1.215
    1SYS      O 2123   2.226   2.606   1.169
    1SYS      C 2124   2.090   2.415   1.176
    1SYS      C 2125   2.089   2.572   1.176
    1SYS      H 2126   2.016   2.374   1.245
    1SYS      C 2127   2.067   2.349   1.036
    1SYS      H 2128   2.062   2.615   1.273
    1SYS      H 2129   2.032   2.615   1.094
    1SYS      H 2130   2.137   2.267   1.020
    1SYS      H 2131   2.086   2.418   0.954
    1SYS      H 2132   1.965   2.310   1.031
    1SYS     Na 2133   2.813   0.255   2.695
    1SYS     Na 2134   2.263   2.893   2.863
    1SYS     Na 2135   2.697   0.559   0.388
    1SYS     Na 2136   1.255   1.673   2.268
    1SYS     Na 2137   2.699   0.754   2.762
    1SYS     Na 2138   0.071   2.894   2.170
    1SYS     Na 2139   2.797   0.168   1.756
    1SYS     Na 2140   2.241   2.600   0.272
    1SYS     Na 2141   2.556   0.362   2.349
    1SYS     Na 2142   0.020   0.416   2.260
    1SYS     Na 2143   0.328   0.186   1.857
    1SYS     Na 2144   0.307   0.108   2.756
    1SYS     Na 2145   1.285   1.928   1.807
    1SYS     Na 2146   0.763   1.576   1.997
    1SYS     Na 2147   0.179   0.432   0.137
    1SYS     Na 2148   1.582   2.160   1.405
    1SYS     Na 2149   2.638   0.195   0.178
    1SYS      P 2150   0.099   0.134   2.500
    1SYS      F 2151   0.133   0.008   2.399
    1SYS      F 2152   0.099   0.234   2.379
    1SYS      F 2153   2.908   0.103   2.471
    1SYS      F 2154   0.059   0.257   2.594
    1SYS      F 2155   0.093   0.043   2.633
    1SYS      F 2156   0.254   0.170   2.522
    1SYS      P 2157   0.501   0.612   0.170
    1SYS      F 2158   0.393   0.499   0.178
    1SYS      F 2159   0.443   0.663   0.025
    1SYS      F 2160   0.406   0.706   0.249
    1SYS      F 2161   0.602   0.726   0.163
    1SYS      F 2162   0.567   0.561   0.301
    1SYS      F 2163   0.597   0.513   0.087
    1SYS      P 2164   1.481   1.656   2.006
    1SYS      F 2165   1.603   1.753   2.061
    1SYS      F 2166   1.375   1.755   2.088
    1SYS      F 2167   1.480   1.744   1.875
    1SYS      F 2168   1.362   1.564   1.950
    1SYS      F 2169   1.589   1.562   1.944
    1SYS      F 2170   1.480   1.563   2.139
    1SYS      P 2171   2.805   0.530   0.041
    1SYS      F 2172   2.664   0.541   2.931
    1SYS      F 2173   2.854   0.672   2.948
    1SYS      F 2174   2.745   0.612   0.167
    1SYS      F 2175   2.944   0.519   0.120
    1SYS      F 2176   2.762   0.393   0.114
    1SYS      F 2177   2.859   0.450   2.877
    1SYS      P 2178   0.080   2.891   1.776
    1SYS      F 2179   0.073   2.853   1.930
    1SYS      F 2180   0.101   0.082   1.818
    1SYS      F 2181   0.243   2.867   1.774
    1SYS      F 2182   0.075   2.936   1.625
    1SYS      F 2183   0.052   2.742   1.730
    1SYS      F 2184   2.888   2.906   1.782
    1SYS      P 2185   0.020   0.095   0.059
    1SYS      F 2186   2.948   2.943   2.916
    1SYS      F 2187   0.167   0.098   0.004
    1SYS      F 2188   2.940   0.204   2.912
    1SYS      F 2189   0.064   0.217   0.158
    1SYS      F 2190   2.836   0.094   0.124
    1SYS      F 2191   0.064   2.948   0.169
    1SYS      P 2192   0.584   1.714   2.240
    1SYS      F 2193   0.475   1.825   2.266
    1SYS      F 2194   0.693   1.826   2.226
    1SYS      F 2195   0.612   1.707   2.397
    1SYS      F 2196   0.699   1.602   2.216
    1SYS      F 2197   0.470   1.600   2.253
    1SYS      F 2198   0.565   1.716   2.088
    1SYS      P 2199   0.945   1.805   1.862
    1SYS      F 2200   1.085   1.789   1.791
    1SYS      F 2201   0.920   1.651   1.835
    1SYS      F 2202   1.016   1.763   2.000
    1SYS      F 2203   0.806   1.809   1.936
    1SYS      F 2204   0.975   1.962   1.885
    1SYS      F 2205   0.868   1.836   1.727
    1SYS      P 2206   0.036   0.461   0.502
    1SYS      F 2207   0.151   0.422   0.391
    1SYS      F 2208   0.058   0.319   0.568
    1SYS      F 2209   0.146   0.519   0.603
    1SYS      F 2210   2.881   0.499   0.609
    1SYS      F 2211   0.009   0.598   0.430
    1SYS      F 2212   2.884   0.398   0.406
    1SYS      P 2213   1.388   1.753   2.552
    1SYS      F 2214   1.443   1.782   2.404
    1SYS      F 2215   1.345   1.910   2.567
    1SYS      F 2216   1.243   1.721   2.495
    1SYS      F 2217   1.347   1.715   2.703
    1SYS      F 2218   1.423   1.595   2.527
    1SYS      F 2219   1.536   1.775   2.610
    1SYS      P 2220   1.303   2.178   1.639
    1SYS      F 2221   1.421   2.243   1.564
    1SYS      F 2222   1.384   2.173   1.775
    1SYS      F 2223   1.248   2.318   1.683
    1SYS      F 2224   1.190   2.107   1.723
    1SYS      F 2225   1.210   2.173   1.507
    1SYS      F 2226   1.367   2.038   1.595
    1SYS      P 2227   2.362   2.920   0.304
    1SYS      F 2228   2.214   2.863   0.323
    1SYS      F 2229   2.363   2.950   0.459
    1SYS      F 2230   2.416   2.771   0.335
    1SYS      F 2231   2.510   0.016   0.281
    1SYS      F 2232   2.360   2.889   0.144
    1SYS      F 2233   2.308   0.101   0.269
    1SYS      P 2234   1.027   1.411   2.237
    1SYS      F 2235   1.114   1.374   2.365
    1SYS      F 2236   1.078   1.273   2.174
    1SYS      F 2237   0.903   1.334   2.301
    1SYS      F 2238   0.946   1.442   2.099
    1SYS      F 2239   0.984   1.555   2.307
    1SYS      F 2240   1.153   1.484   2.171
    1SYS      P 2241   2.532   0.110   2.766
    1SYS      F 2242   2.573   0.262   2.749
    1SYS      F 2243   2.385   0.149   2.814
    1SYS      F 2244   2.491   0.103   2.609
    1SYS      F 2245   2.498   2.917   2.780
    1SYS      F 2246   2.683   0.071   2.729
    1SYS      F 2247   2.586   0.122   2.916
    1SYS      P 2248   0.070   0.428   1.945
    1SYS      F 2249   0.181   0.471   2.054
    1SYS      F 2250   2.925   0.477   2.046
    1SYS      F 2251   0.070   0.572   1.876
    1SYS      F 2252   2.920   0.373   1.849
    1SYS      F 2253   0.181   0.381   1.835
    1SYS      F 2254   0.076   0.285   2.017
    1SYS      P 2255   2.718   0.148   2.136
    1SYS      F 2256   2.582   0.221   2.134
    1SYS      F 2257   2.752   0.194   1.984
    1SYS      F 2258   2.777   0.282   2.198
    1SYS      F 2259   2.862   0.078   2.149
    1SYS      F 2260   2.677   0.111   2.287
    1SYS      F 2261   2.653   0.013   2.085
    1SYS      P 2262   2.755   0.549   2.472
    1SYS      F 2263   2.721   0.397   2.497
    1SYS      F 2264   2.606   0.577   2.435
    1SYS      F 2265   2.727   0.571   2.629
    1SYS      F 2266   2.805   0.700   2.455
    1SYS      F 2267   2.900   0.504   2.513
    1SYS      F 2268   2.790   0.517   2.324
   2.96204   2.96204   2.96204
